<?xml version="1.0" ?> 
<!-- 
# vtk DataFile Version 3.0
-->
<VTKFile type="UnstructuredGrid" version="0.1" compressor="vtkZLibDataCompressor" byte_order="LittleEndian">
  <UnstructuredGrid>
    <FieldData>
      <DataArray type="Float64" Name="TIME" NumberOfTuples="1" format="ascii">
1.000000000000000e-03 
      </DataArray>
    </FieldData>

    <Piece NumberOfPoints="288" NumberOfCells="48" >
      <Points>
        <DataArray type="Float64" NumberOfComponents="3" format="ascii">
-1.288273886058787e-01 1.574736944851021e-01 -6.344817195946136e-02
-1.193128924926187e-01 1.858731086366497e-01 -6.533171998749944e-02
-1.097940064372070e-01 2.142856261395235e-01 -6.721613707542091e-02
-1.002736570677449e-01 2.427025114261727e-01 -6.910084384997020e-02
-9.075477101233324e-02 2.711150289290465e-01 -7.098526093789168e-02
-8.124027489907322e-02 2.995144430805942e-01 -7.286880896592976e-02
-4.500268190663783e-01 2.474761584294862e-01 -3.056316359597823e-01
-4.541319692687994e-01 2.728868858666610e-01 -3.210546130826689e-01
-4.582384628012986e-01 2.983059284671765e-01 -3.364826370730366e-01
-4.623454041104904e-01 3.237277427888054e-01 -3.519123433525647e-01
-4.664518976429897e-01 3.491467853893209e-01 -3.673403673429325e-01
-4.705570478454108e-01 3.745575128264957e-01 -3.827633444658190e-01
-2.584577989704238e-01 -1.289697396625475e-01 -4.177895229112404e-01
-2.574065710216595e-01 -1.013963181249604e-01 -4.059943423429256e-01
-2.563549187725426e-01 -7.381176730518892e-02 -3.941944009620006e-01
-2.553031250899748e-01 -4.622350672468922e-02 -3.823928726435390e-01
-2.542514728408580e-01 -1.863895590491767e-02 -3.705929312626140e-01
-2.532002448920937e-01 8.934465632669321e-03 -3.587977506942993e-01
-2.564934034194228e-01 -1.218771252163141e-01 -2.246034934058797e-01
-2.636636408232885e-01 -9.942841324514178e-02 -2.060308958524986e-01
-2.708355234067685e-01 -7.697455051518383e-02 -1.874540368978334e-01
-2.780079543834533e-01 -5.451897086563065e-02 -1.688757574760736e-01
-2.851798369669333e-01 -3.206510813567268e-02 -1.502988985214084e-01
-2.923500743707990e-01 -9.616396164500395e-03 -1.317263009680273e-01
2.211659542574408e-01 1.764072814413226e-01 1.264866246342715e-01
2.375397939458478e-01 2.013219843967811e-01 1.298882219069271e-01
2.539188703586948e-01 2.262446556380152e-01 1.332909070873619e-01
2.702996923463551e-01 2.511699829745079e-01 1.366939549037231e-01
2.866787687592021e-01 2.760926542157420e-01 1.400966400841579e-01
3.030526084476091e-01 3.010073571712005e-01 1.434982373568135e-01
-5.943197655992402e-02 -1.438691028260122e-01 -4.733010424329329e-01
-5.386402061993925e-02 -1.184019323324591e-01 -4.584406660814709e-01
-4.829431055204823e-02 -9.292673866578151e-02 -4.435756081195336e-01
-4.272401577485514e-02 -6.744887060806247e-02 -4.287089896207711e-01
-3.715430570696412e-02 -4.197367694138490e-02 -4.138439316588338e-01
-3.158634976697936e-02 -1.650650644783179e-02 -3.989835553073719e-01
-2.834908701085682e-01 -9.611997440595225e-02 -1.615326450195084e-01
-2.675212085885496e-01 -7.312664613557404e-02 -1.723305663064491e-01
-2.515476375269685e-01 -5.012768885593865e-02 -1.831311310383998e-01
-2.355727632848666e-01 -2.712685523988421e-02 -1.939325769186872e-01
-2.195991922232855e-01 -4.127897960248818e-03 -2.047331416506379e-01
-2.036295307032669e-01 1.886543031012939e-02 -2.155310629375786e-01
3.374210905656114e-01 -3.557286437254201e-02 -3.348392426401839e-01
3.488439907685097e-01 -1.482320542960941e-02 -3.532565097036240e-01
3.602688827609890e-01 5.930071592248331e-03 -3.716769881512129e-01
3.716944386833284e-01 2.668455464041444e-02 -3.900985370601847e-01
3.831193306758076e-01 4.743783166227219e-02 -4.085190155077735e-01
3.945422308787060e-01 6.818749060520478e-02 -4.269362825712137e-01
2.143771529180745e-01 -2.109290341325738e-01 -4.557954876489155e-01
2.127899271852959e-01 -1.811057421229456e-01 -4.587436728183479e-01
2.112019206758273e-01 -1.512677796535702e-01 -4.616933082378681e-01
2.096136539074620e-01 -1.214249270309457e-01 -4.646434270740842e-01
2.080256473979934e-01 -9.158696456157020e-02 -4.675930624936044e-01
2.064384216652148e-01 -6.176367255194205e-02 -4.705412476630368e-01
-4.705477970140527e-01 1.967061491508033e-01 -2.351770884436523e-01
-4.738577858015977e-01 2.263231122881725e-01 -2.316404144208596e-01
-4.771693742438503e-01 2.559543887412506e-01 -2.281020311906911e-01
-4.804814959043387e-01 2.855904362995652e-01 -2.245630782247306e-01
-4.837930843465914e-01 3.152217127526434e-01 -2.210246949945620e-01
-4.871030731341363e-01 3.448386758900127e-01 -2.174880209717694e-01
-1.192042617574861e-01 2.636800889226030e-01 -4.862542778513285e-01
-1.209181471277090e-01 2.920737403766849e-01 -4.766916010683857e-01
-1.226327989361897e-01 3.204800892848276e-01 -4.671246479193213e-01
-1.243477062240897e-01 3.488906706776572e-01 -4.575562693148830e-01
-1.260623580325705e-01 3.772970195857999e-01 -4.479893161658186e-01
-1.277762434027933e-01 4.056906710398818e-01 -4.384266393828759e-01
2.734959149698680e-01 -1.138872469853718e-02 -3.001003711061651e-01
2.744633313664139e-01 9.747850544182669e-04 -3.274163195286538e-01
2.754307130135802e-01 1.333785071288123e-02 -3.547312867684125e-01
2.763980830776200e-01 2.570076833984671e-02 -3.820459269472613e-01
2.773654647247863e-01 3.806383399830968e-02 -4.093608941870201e-01
2.783328811213323e-01 5.042734375126511e-02 -4.366768426095088e-01
-2.114746378548225e-01 5.275291330391883e-02 -2.182823530737038e-02
-2.209077182580037e-01 7.739894511362456e-02 -3.611090783588349e-02
-2.303437337135657e-01 1.020526454039591e-01 -5.039802434136045e-02
-2.397807275199214e-01 1.267089018545033e-01 -6.468662217249206e-02
-2.492167429754835e-01 1.513626021448379e-01 -7.897373867796904e-02
-2.586498233786647e-01 1.760086339545436e-01 -9.325641120648215e-02
-4.018096718225557e-01 1.218783826680454e-01 -1.930676592918672e-01
-3.825535899137323e-01 1.423535564442583e-01 -2.035639310387337e-01
-3.632945289629838e-01 1.628318978638886e-01 -2.140618266275498e-01
-3.440344749982603e-01 1.833112951646580e-01 -2.245602634970159e-01
-3.247754140475119e-01 2.037896365842883e-01 -2.350581590858321e-01
-3.055193321386885e-01 2.242648103605012e-01 -2.455544308326985e-01
2.841932491943163e-01 -4.312060118736284e-02 -2.930421291301283e-01
3.072858293754950e-01 -3.793745214391839e-02 -2.746114316055988e-01
3.303752632553758e-01 -3.275500929044641e-02 -2.561832452135235e-01
3.534636483681574e-01 -2.757280183363191e-02 -2.377558958655994e-01
3.765530822480382e-01 -2.239035898015993e-02 -2.193277094735241e-01
3.996456624292168e-01 -1.720720993671548e-02 -2.008970119489947e-01
-2.929902176332013e-01 3.393436431669362e-01 -3.411065750733120e-01
-2.851773829143925e-01 3.395405437255800e-01 -3.121460504423756e-01
-2.773658036176341e-01 3.397374126448366e-01 -2.831901793952560e-01
-2.695546427948925e-01 3.399342710176308e-01 -2.542358595427419e-01
-2.617430634981341e-01 3.401311399368874e-01 -2.252799884956223e-01
-2.539302287793255e-01 3.403280404955312e-01 -1.963194638646860e-01
-4.663173027536347e-01 -2.163987416925466e-03 -1.571144085622925e-01
-4.655848583734364e-01 1.527818234289933e-02 -1.815138410173264e-01
-4.648523587461864e-01 3.272166773635229e-02 -2.059151138806517e-01
-4.641198407032524e-01 5.016559167434795e-02 -2.303170002134075e-01
-4.633873410760023e-01 6.760907706780092e-02 -2.547182730767328e-01
-4.626548966958041e-01 8.505124682762571e-02 -2.791177055317667e-01
3.858959154226348e-01 3.803879436418602e-01 -3.288359839633824e-01
4.000520149387863e-01 4.012511851926586e-01 -3.451011343153190e-01
4.142105653686231e-01 4.221180388969444e-01 -3.613691007310694e-01
4.283699327696884e-01 4.429860966523927e-01 -3.776380058347577e-01
4.425284831995252e-01 4.638529503566787e-01 -3.939059722505082e-01
4.566845827156767e-01 4.847161919074771e-01 -4.101711226024448e-01
-7.805910491042591e-02 -3.581902457169168e-02 -1.568971137424633e-01
-6.209131857186689e-02 -2.239451003217923e-02 -1.353381941387906e-01
-4.612384169972572e-02 -8.970255668769953e-03 -1.137796923614515e-01
-3.015646798305717e-02 4.453911969271600e-03 -9.222132985955693e-02
-1.418899111091600e-02 1.787816633268088e-02 -7.066282808221781e-02
1.778795227643005e-03 3.130268087219333e-02 -4.910390847854507e-02
-6.781603136065611e-02 3.998007256812628e-01 -3.046631139478361e-01
-7.718019198675796e-02 4.099971268787144e-01 -2.780503688524850e-01
-8.654357678106878e-02 4.201926832922585e-01 -2.514398286545631e-01
-9.590670296478257e-02 4.303879581111668e-01 -2.248300234224510e-01
-1.052700877590934e-01 4.405835145247109e-01 -1.982194832245292e-01
-1.146342483851952e-01 4.507799157221625e-01 -1.716067381291781e-01
1.180862404200708e-01 -2.160536228223803e-01 -1.824447861218195e-01
1.329103234218711e-01 -1.910487700150148e-01 -1.898885125891796e-01
1.477390250120389e-01 -1.660361267006549e-01 -1.973345582224855e-01
1.625692661316626e-01 -1.410208865506303e-01 -2.047813769111065e-01
1.773979677218304e-01 -1.160082432362705e-01 -2.122274225444124e-01
1.922220507236307e-01 -9.100339042890501e-02 -2.196711490117726e-01
-7.730107506401422e-02 3.424846958835338e-01 6.297958213377346e-02
-6.015804192182969e-02 3.669314721771481e-01 6.595566428663695e-02
-4.300992656088420e-02 3.913854959551542e-01 6.893262872797447e-02
-2.586011712701838e-02 4.158419355612909e-01 7.190988726547001e-02
-8.712001766072872e-03 4.402959593392969e-01 7.488685170680755e-02
8.431031376111646e-03 4.647427356329114e-01 7.786293385967104e-02
1.380796594394295e-01 -2.235499266583490e-02 -2.236244117272721e-01
1.427783696775813e-01 -4.277476441444196e-03 -2.001457755250187e-01
1.474775165939864e-01 1.380171983083430e-02 -1.766649573176343e-01
1.521768090698093e-01 3.188147611907539e-02 -1.531834117752061e-01
1.568759559862145e-01 4.996067239135389e-02 -1.297025935678217e-01
1.615746662243662e-01 6.803818861574459e-02 -1.062239573655684e-01
-3.530334391324227e-02 -9.952796543308483e-02 -2.503270912643348e-01
-2.312997433040755e-02 -7.270736941260222e-02 -2.560696467741677e-01
-1.095181009627834e-02 -4.587620972652536e-02 -2.618144640695335e-01
1.227952354949031e-03 -1.904152881858375e-02 -2.675600352934103e-01
1.340611658907825e-02 7.789630867493125e-03 -2.733048525887761e-01
2.557948617191297e-02 3.461022688797571e-02 -2.790474080986091e-01
1.437416349390191e-01 -2.360402978710731e-01 -2.855002119048371e-01
1.411095092395159e-01 -2.065118362237154e-01 -2.808311937064352e-01
1.384760522848281e-01 -1.769684399105599e-01 -2.761598140498837e-01
1.358421515784122e-01 -1.474200653754718e-01 -2.714876472406159e-01
1.332086946237245e-01 -1.178766690623162e-01 -2.668162675840645e-01
1.305765689242213e-01 -8.834820741495855e-02 -2.621472493856625e-01
-2.755640229310309e-01 2.171060197614911e-01 2.434160465691566e-02
-2.513343508981825e-01 2.334642135199830e-01 1.760498904793933e-02
-2.271037563172961e-01 2.498230301189135e-01 1.086811694141306e-02
-2.028728542203970e-01 2.661820543313234e-01 4.131159335703483e-03
-1.786422596395106e-01 2.825408709302539e-01 -2.605712770822790e-03
-1.544125876066622e-01 2.988990646887458e-01 -9.342328379799114e-03
1.084648756096548e-01 -1.800093602026049e-01 -3.397398636012388e-01
1.196730924466767e-01 -1.521858487785634e-01 -3.388565216854278e-01
1.308860680476322e-01 -1.243505240996041e-01 -3.379728047219434e-01
1.421006299032322e-01 -9.651126166900544e-02 -3.370889627425676e-01
1.533136055041878e-01 -6.867593699004608e-02 -3.362052457790832e-01
1.645218223412097e-01 -4.085242556600466e-02 -3.353219038632723e-01
-1.711321226679592e-01 6.967842978623712e-02 -3.126507601572823e-01
-1.712177443403711e-01 9.856328073539888e-02 -3.045104745719907e-01
-1.713034059183296e-01 1.274615939976773e-01 -2.963663950577082e-01
-1.713890807981369e-01 1.563643946976614e-01 -2.882210509004289e-01
-1.714747423760954e-01 1.852627079599398e-01 -2.800769713861466e-01
-1.715603640485073e-01 2.141475589091016e-01 -2.719366858008549e-01
-3.974285132837125e-01 -4.710321335608210e-02 -2.893705591251372e-01
-3.805570277139394e-01 -2.286571132713087e-02 -2.840552605190044e-01
-3.636809242411644e-01 1.378424760979919e-03 -2.787385070597534e-01
-3.468032814673887e-01 2.562477220214390e-02 -2.734212686494631e-01
-3.299271779946137e-01 4.986890829025472e-02 -2.681045151902122e-01
-3.130556924248407e-01 7.410641031920592e-02 -2.627892165840794e-01
2.524636158066181e-01 -1.870210931046135e-01 -1.881713528787705e-01
2.493530319282487e-01 -1.589029519391376e-01 -1.981849742555458e-01
2.462410652056298e-01 -1.307723105449789e-01 -2.082030472977571e-01
2.431286375349278e-01 -1.026375024079259e-01 -2.182226042284471e-01
2.400166708123090e-01 -7.450686101376713e-02 -2.282406772706585e-01
2.369060869339396e-01 -4.638871984829128e-02 -2.382542986474338e-01
-7.957806483194688e-02 -1.659331357568297e-02 -2.487879925582000e-01
-8.465107298848934e-02 1.081494266411814e-02 -2.599048691830874e-01
-8.972615963939642e-02 3.823442851451322e-02 -2.710263005740434e-01
-9.480193912175836e-02 6.565765756843964e-02 -2.821492502203556e-01
-9.987702577266541e-02 9.307714341883473e-02 -2.932706816113116e-01
-1.049500339292079e-01 1.204853996586358e-01 -3.043875582361991e-01
2.915272848062051e-01 3.375633709449491e-01 -4.981927079532918e-01
2.959417919681511e-01 3.391463032372353e-01 -4.685648839916808e-01
3.003556249601161e-01 3.407289937889616e-01 -4.389415847003867e-01
3.047692332287540e-01 3.423116037605011e-01 -4.093197936325317e-01
3.091830662207190e-01 3.438942943122274e-01 -3.796964943412376e-01
3.135975733826651e-01 3.454772266045136e-01 -3.500686703796267e-01
2.756825568731804e-01 4.085234033033863e-01 -1.180216227135850e-01
2.821221574753242e-01 4.258511644693712e-01 -1.416514311457895e-01
2.885621920227726e-01 4.431800933010336e-01 -1.652828319196709e-01
2.950023712186560e-01 4.605094113545887e-01 -1.889147634741114e-01
3.014424057661045e-01 4.778383401862512e-01 -2.125461642479928e-01
3.078820063682482e-01 4.951661013522361e-01 -2.361759726801973e-01
2.282539074539759e-01 -6.911243974510135e-02 -2.094927323497185e-01
2.209050256272066e-01 -4.240585146396153e-02 -2.210369767723613e-01
2.135532196354432e-01 -1.568863646811825e-02 -2.325858147204165e-01
2.062004389220151e-01 1.103212076595953e-02 -2.441361838436090e-01
1.988486329302518e-01 3.774933576180284e-02 -2.556850217916642e-01
1.914997511034825e-01 6.445592404294263e-02 -2.672292662143070e-01
-2.773936333265883e-01 1.645502441117088e-01 -3.312409866942861e-01
-2.805742675373977e-01 1.700763801254836e-01 -3.019294097083955e-01
-2.837544690169547e-01 1.756017642980846e-01 -2.726218206175532e-01
-2.869345262527609e-01 1.811268978569611e-01 -2.433155608250604e-01
-2.901147277323179e-01 1.866522820295621e-01 -2.140079717342182e-01
-2.932953619431273e-01 1.921784180433370e-01 -1.846963947483276e-01
2.123383396481303e-01 -5.374708042656427e-02 -3.410272222608442e-02
2.102382289903997e-01 -3.767007689782416e-02 -8.860329048014912e-03
2.081380231529055e-01 -2.159234473824301e-02 1.638320814834993e-02
2.060377855888234e-01 -5.514369701714849e-03 4.162712668414657e-02
2.039375797513293e-01 1.056336245786631e-02 6.687066388051144e-02
2.018374690935987e-01 2.664036598660640e-02 9.211305705858093e-02
-3.403037742853040e-01 1.672320146281321e-01 -1.377766827045893e-01
-3.356493223974455e-01 1.744962118072470e-01 -1.090467647442020e-01
-3.309954410455667e-01 1.817595185515798e-01 -8.032036845559927e-02
-3.263417498723477e-01 1.890225284843184e-01 -5.159514605759138e-02
-3.216878685204688e-01 1.962858352286511e-01 -2.286874976898862e-02
-3.170334166326103e-01 2.035500324077661e-01 5.861168191398688e-03
3.442052087905364e-02 1.362954329834652e-01 -3.477351958336324e-02
5.202809297180113e-02 1.594941408980748e-01 -2.755394178551067e-02
6.964011920246541e-02 1.826987173244813e-01 -2.033253767139808e-02
8.725363014576860e-02 2.059052499214869e-01 -1.311052478519881e-02
1.048656563764329e-01 2.291098263478935e-01 -5.889120671086210e-03
1.224732284691804e-01 2.523085342625031e-01 1.330457126766353e-03
5.392810654986941e-02 -2.205492536957387e-01 -2.645836429745303e-02
5.831219943390680e-02 -1.938962426601210e-01 -3.953079822987758e-02
6.269795016314429e-02 -1.672331527854864e-01 -5.260817550461300e-02
6.708425350744848e-02 -1.405667032978462e-01 -6.568720056011869e-02
7.147000423668597e-02 -1.139036134232116e-01 -7.876457783485410e-02
7.585409712072336e-02 -8.725060238759397e-02 -9.183701176727865e-02
3.011166830553013e-01 3.334736074918620e-01 1.420191413554484e-01
3.055776934478757e-01 3.346041404881102e-01 1.123777241580132e-01
3.100379910948853e-01 3.357344928565841e-01 8.274104283581224e-02
3.144980511600402e-01 3.368647850157998e-01 5.310594013868939e-02
3.189583488070499e-01 3.379951373842736e-01 2.346925881648844e-02
3.234193591996243e-01 3.391256703805218e-01 -6.172158380946770e-03
4.912890378997275e-02 3.166079143269940e-01 -4.936950514141296e-01
5.806583070712693e-02 3.320390655727791e-01 -4.695695713442380e-01
6.700294928317233e-02 3.474705477508148e-01 -4.454435738858972e-01
7.594013174551478e-02 3.629021402396007e-01 -4.213174039647399e-01
8.487725032156018e-02 3.783336224176364e-01 -3.971914065063989e-01
9.381417723871437e-02 3.937647736634215e-01 -3.730659264365075e-01
-6.326616383143903e-02 8.230534397354548e-02 -3.253243148558723e-01
-4.484376602675843e-02 9.435361107342598e-02 -3.457056147384419e-01
-2.642217791237934e-02 1.064013486350170e-01 -3.660860188342075e-01
-8.000859694767416e-03 1.184489096838449e-01 -3.864661243343721e-01
1.042072841961168e-02 1.304966472454360e-01 -4.068465284301379e-01
2.884312622429228e-02 1.425449143453165e-01 -4.272278283127074e-01
-1.223516700029168e-01 -1.928113711567522e-02 -3.680228918847241e-01
-1.277926465044677e-01 9.086515209015971e-03 -3.598830622468932e-01
-1.332360692081574e-01 3.746692131269753e-02 -3.517395730327592e-01
-1.386803073125602e-01 6.585157867604252e-02 -3.435948639598576e-01
-1.441237300162500e-01 9.423198477972412e-02 -3.354513747457237e-01
-1.495647065178008e-01 1.225996371044153e-01 -3.273115451078928e-01
2.047886626900920e-01 1.530237278404783e-01 -8.345977355994304e-02
2.017487410143807e-01 1.826830366595009e-01 -8.003081414685127e-02
1.987072453413057e-01 2.123577023458619e-01 -7.660007930213579e-02
1.956652250024428e-01 2.420374869880023e-01 -7.316875264687908e-02
1.926237293293679e-01 2.717121526743633e-01 -6.973801780216360e-02
1.895838076536567e-01 3.013714614933860e-01 -6.630905838907185e-02
2.225802330293511e-01 9.495987435987013e-02 1.102131678695477e-01
2.251196118385274e-01 1.217829341260036e-01 9.700054012344325e-02
2.276599640207251e-01 1.486162754785754e-01 8.378284782558991e-02
2.302006406605965e-01 1.754530440266266e-01 7.056346734382028e-02
2.327409928427942e-01 2.022863853791985e-01 5.734577504596693e-02
2.352803716519705e-01 2.291094451453319e-01 4.413314729986248e-02
3.504579711731607e-01 3.072100825279395e-01 -1.894435832092866e-01
3.604448688352874e-01 3.133943336921756e-01 -1.618420413500406e-01
3.704304465044361e-01 3.195777674686315e-01 -1.342441476548859e-01
3.804155841759255e-01 3.257609287824940e-01 -1.066474700144283e-01
3.904011618450743e-01 3.319443625589499e-01 -7.904957631927362e-02
4.003880595072010e-01 3.381286137231860e-01 -5.144803446002767e-02
2.146507121700815e-01 -1.287283027924463e-01 -1.360316863777021e-01
2.411591951061268e-01 -1.218923933966965e-01 -1.237673321829196e-01
2.676644906679226e-01 -1.150573059492126e-01 -1.115044526514304e-01
2.941687237716354e-01 -1.082224924844839e-01 -9.924206467437219e-02
3.206740193334314e-01 -1.013874050370000e-01 -8.697918514288293e-02
3.471825022694767e-01 -9.455149564125023e-02 -7.471483094810043e-02
-3.776447039274644e-01 5.125546408812576e-02 -3.296411241098932e-01
-3.805832623346693e-01 6.361175836123228e-02 -3.568190717019834e-01
-3.835217166880241e-01 7.596761510007431e-02 -3.839960569276030e-01
-3.864601363567623e-01 8.832332599416154e-02 -4.111727213643990e-01
-3.893985907101171e-01 1.006791827330036e-01 -4.383497065900185e-01
-3.923371491173221e-01 1.130354770061101e-01 -4.655276541821088e-01
        </DataArray>
      </Points>

      <Cells>
        <DataArray type="Int32" Name="connectivity" format="ascii">
0 1 2 3 4 5 6 7 8 9 10 11 12 13 14 15 16 17 18 19 20 21 22 23 24 25 26 27 28 29 30 31 32 33 34 35 36 37 38 39 40 41 42 43 44 45 46 47 48 49 50 51 52 53 54 55 56 57 58 59 60 61 62 63 64 65 66 67 68 69 70 71 72 73 74 75 76 77 78 79 80 81 82 83 84 85 86 87 88 89 90 91 92 93 94 95 96 97 98 99 100 101 102 103 104 105 106 107 108 109 110 111 112 113 114 115 116 117 118 119 120 121 122 123 124 125 126 127 128 129 130 131 132 133 134 135 136 137 138 139 140 141 142 143 144 145 146 147 148 149 150 151 152 153 154 155 156 157 158 159 160 161 162 163 164 165 166 167 168 169 170 171 172 173 174 175 176 177 178 179 180 181 182 183 184 185 186 187 188 189 190 191 192 193 194 195 196 197 198 199 200 201 202 203 204 205 206 207 208 209 210 211 212 213 214 215 216 217 218 219 220 221 222 223 224 225 226 227 228 229 230 231 232 233 234 235 236 237 238 239 240 241 242 243 244 245 246 247 248 249 250 251 252 253 254 255 256 257 258 259 260 261 262 263 264 265 266 267 268 269 270 271 272 273 274 275 276 277 278 279 280 281 282 283 284 285 286 287 
        </DataArray>
        <DataArray type="Int32" Name="offsets" format="ascii">
6 12 18 24 30 36 42 48 54 60 66 72 78 84 90 96 102 108 114 120 126 132 138 144 150 156 162 168 174 180 186 192 198 204 210 216 222 228 234 240 246 252 258 264 270 276 282 288 
        </DataArray>
        <DataArray type="UInt8" Name="types" format="ascii">
4 4 4 4 4 4 4 4 4 4 4 4 4 4 4 4 4 4 4 4 4 4 4 4 4 4 4 4 4 4 4 4 4 4 4 4 4 4 4 4 4 4 4 4 4 4 4 4 
        </DataArray>
      </Cells>

  <CellData>
        <DataArray type="Float64" Name="cross_section_radius" format="ascii">
5.000000000000000e-03
5.000000000000000e-03
5.000000000000000e-03
5.000000000000000e-03
5.000000000000000e-03
5.000000000000000e-03
5.000000000000000e-03
5.000000000000000e-03
5.000000000000000e-03
5.000000000000000e-03
5.000000000000000e-03
5.000000000000000e-03
5.000000000000000e-03
5.000000000000000e-03
5.000000000000000e-03
5.000000000000000e-03
5.000000000000000e-03
5.000000000000000e-03
5.000000000000000e-03
5.000000000000000e-03
5.000000000000000e-03
5.000000000000000e-03
5.000000000000000e-03
5.000000000000000e-03
5.000000000000000e-03
5.000000000000000e-03
5.000000000000000e-03
5.000000000000000e-03
5.000000000000000e-03
5.000000000000000e-03
5.000000000000000e-03
5.000000000000000e-03
5.000000000000000e-03
5.000000000000000e-03
5.000000000000000e-03
5.000000000000000e-03
5.000000000000000e-03
5.000000000000000e-03
5.000000000000000e-03
5.000000000000000e-03
5.000000000000000e-03
5.000000000000000e-03
5.000000000000000e-03
5.000000000000000e-03
5.000000000000000e-03
5.000000000000000e-03
5.000000000000000e-03
5.000000000000000e-03
        </DataArray>
        <DataArray type="Float64" Name="element_ghosting" NumberOfComponents="3" format="ascii">
0.000000000000000e+00 0.000000000000000e+00 0.000000000000000e+00
0.000000000000000e+00 0.000000000000000e+00 0.000000000000000e+00
1.000000000000000e+00 0.000000000000000e+00 0.000000000000000e+00
1.000000000000000e+00 0.000000000000000e+00 0.000000000000000e+00
0.000000000000000e+00 1.000000000000000e+00 0.000000000000000e+00
0.000000000000000e+00 0.000000000000000e+00 0.000000000000000e+00
1.000000000000000e+00 0.000000000000000e+00 0.000000000000000e+00
0.000000000000000e+00 0.000000000000000e+00 0.000000000000000e+00
1.000000000000000e+00 0.000000000000000e+00 0.000000000000000e+00
0.000000000000000e+00 0.000000000000000e+00 0.000000000000000e+00
0.000000000000000e+00 0.000000000000000e+00 0.000000000000000e+00
0.000000000000000e+00 0.000000000000000e+00 0.000000000000000e+00
0.000000000000000e+00 1.000000000000000e+00 0.000000000000000e+00
0.000000000000000e+00 0.000000000000000e+00 0.000000000000000e+00
0.000000000000000e+00 0.000000000000000e+00 0.000000000000000e+00
0.000000000000000e+00 0.000000000000000e+00 0.000000000000000e+00
1.000000000000000e+00 0.000000000000000e+00 0.000000000000000e+00
0.000000000000000e+00 0.000000000000000e+00 0.000000000000000e+00
1.000000000000000e+00 0.000000000000000e+00 0.000000000000000e+00
0.000000000000000e+00 0.000000000000000e+00 0.000000000000000e+00
1.000000000000000e+00 0.000000000000000e+00 0.000000000000000e+00
0.000000000000000e+00 1.000000000000000e+00 0.000000000000000e+00
0.000000000000000e+00 0.000000000000000e+00 0.000000000000000e+00
1.000000000000000e+00 0.000000000000000e+00 0.000000000000000e+00
1.000000000000000e+00 0.000000000000000e+00 0.000000000000000e+00
0.000000000000000e+00 1.000000000000000e+00 0.000000000000000e+00
1.000000000000000e+00 0.000000000000000e+00 0.000000000000000e+00
0.000000000000000e+00 0.000000000000000e+00 0.000000000000000e+00
1.000000000000000e+00 0.000000000000000e+00 0.000000000000000e+00
1.000000000000000e+00 0.000000000000000e+00 0.000000000000000e+00
0.000000000000000e+00 0.000000000000000e+00 0.000000000000000e+00
0.000000000000000e+00 0.000000000000000e+00 0.000000000000000e+00
0.000000000000000e+00 0.000000000000000e+00 0.000000000000000e+00
0.000000000000000e+00 0.000000000000000e+00 0.000000000000000e+00
0.000000000000000e+00 0.000000000000000e+00 0.000000000000000e+00
1.000000000000000e+00 1.000000000000000e+00 0.000000000000000e+00
0.000000000000000e+00 1.000000000000000e+00 0.000000000000000e+00
0.000000000000000e+00 1.000000000000000e+00 0.000000000000000e+00
1.000000000000000e+00 0.000000000000000e+00 0.000000000000000e+00
0.000000000000000e+00 1.000000000000000e+00 0.000000000000000e+00
0.000000000000000e+00 0.000000000000000e+00 0.000000000000000e+00
0.000000000000000e+00 0.000000000000000e+00 0.000000000000000e+00
0.000000000000000e+00 0.000000000000000e+00 0.000000000000000e+00
0.000000000000000e+00 0.000000000000000e+00 0.000000000000000e+00
0.000000000000000e+00 1.000000000000000e+00 0.000000000000000e+00
0.000000000000000e+00 0.000000000000000e+00 0.000000000000000e+00
1.000000000000000e+00 0.000000000000000e+00 0.000000000000000e+00
0.000000000000000e+00 0.000000000000000e+00 0.000000000000000e+00
        </DataArray>
        <DataArray type="Float64" Name="element_owner" format="ascii">
2.000000000000000e+00
2.000000000000000e+00
2.000000000000000e+00
2.000000000000000e+00
2.000000000000000e+00
2.000000000000000e+00
2.000000000000000e+00
2.000000000000000e+00
2.000000000000000e+00
2.000000000000000e+00
2.000000000000000e+00
2.000000000000000e+00
2.000000000000000e+00
2.000000000000000e+00
2.000000000000000e+00
2.000000000000000e+00
2.000000000000000e+00
2.000000000000000e+00
2.000000000000000e+00
2.000000000000000e+00
2.000000000000000e+00
2.000000000000000e+00
2.000000000000000e+00
2.000000000000000e+00
2.000000000000000e+00
2.000000000000000e+00
2.000000000000000e+00
2.000000000000000e+00
2.000000000000000e+00
2.000000000000000e+00
2.000000000000000e+00
2.000000000000000e+00
2.000000000000000e+00
2.000000000000000e+00
2.000000000000000e+00
2.000000000000000e+00
2.000000000000000e+00
2.000000000000000e+00
2.000000000000000e+00
2.000000000000000e+00
2.000000000000000e+00
2.000000000000000e+00
2.000000000000000e+00
2.000000000000000e+00
2.000000000000000e+00
2.000000000000000e+00
2.000000000000000e+00
2.000000000000000e+00
        </DataArray>
      </CellData>

    </Piece>
  </UnstructuredGrid>
</VTKFile>
