<?xml version="1.0"?>
<VTKFile type="UnstructuredGrid" version="0.1" byte_order="LittleEndian" header_type="UInt32" compressor="vtkZLibDataCompressor">
  <UnstructuredGrid>
    <Piece NumberOfPoints="6" NumberOfCells="5">
      <PointData Scalars="point_set_1">
        <DataArray type="Int64" Name="point_set_1" format="ascii" RangeMin="0" RangeMax="1">
          1 0 0 0 0 0
        </DataArray>
        <DataArray type="Int64" Name="point_set_2" format="ascii" RangeMin="0" RangeMax="1">
          0 0 0 0 0 1
        </DataArray>
      </PointData>
      <CellData Scalars="TRIADS">
        <DataArray type="Float64" Name="TRIADS" NumberOfComponents="6" format="ascii" RangeMin="3.053138437080257" RangeMax="3.791371688458452">
          0.5597506361209048 1.1195012722418094 1.6792519083627147 0.6621179385738281 1.0991207130206622 1.8134764858348633
          0.6621179385738281 1.0991207130206622 1.8134764858348633 0.7667853197913015 1.0724158176963532 1.9462118279414216
          0.7667853197913015 1.0724158176963532 1.9462118279414216 0.8738085279339393 1.0389665761515252 2.077217008465129
          0.8738085279339393 1.0389665761515252 2.077217008465129 0.9832476383043953 0.9982903549100053 2.2062093449047846
          0.9832476383043953 0.9982903549100053 2.2062093449047846 1.095165609886247 0.9498320975489164 2.3328547595060196
          <InformationKey name="L2_NORM_RANGE" location="vtkDataArray" length="2">
            <Value index="0">
              3.0531384371
            </Value>
            <Value index="1">
              3.7913716885
            </Value>
          </InformationKey>
        </DataArray>
        <DataArray type="Int64" Name="block_id" format="ascii" RangeMin="1" RangeMax="1">
          1 1 1 1 1
        </DataArray>
      </CellData>
      <Points>
        <DataArray type="Float64" Name="Points" NumberOfComponents="3" format="ascii" RangeMin="2.2204460492503134e-14" RangeMax="76.536686473018">
          -8.723180907769088e-15 2.0176100548388656e-14 -3.1415198988350294e-15 -6.736697055440887 14.126489586040444 -1.1368345772148167
          -14.489628986424735 27.729257266700653 -0.09282978950417675 -23.067892878304857 40.473357756685125 3.106307500405265
          -32.26026340443751 52.04498900668581 8.38180391510793 -41.84039389474063 62.15921905128539 15.60375922450506
          <InformationKey name="L2_NORM_RANGE" location="vtkDataArray" length="2">
            <Value index="0">
              2.2204460493e-14
            </Value>
            <Value index="1">
              76.536686473
            </Value>
          </InformationKey>
        </DataArray>
      </Points>
      <Cells>
        <DataArray type="Int64" Name="connectivity" format="ascii" RangeMin="0" RangeMax="5">
          0 1 1 2 2 3
          3 4 4 5
        </DataArray>
        <DataArray type="Int64" Name="offsets" format="ascii" RangeMin="2" RangeMax="10">
          2 4 6 8 10
        </DataArray>
        <DataArray type="UInt8" Name="types" format="ascii" RangeMin="3" RangeMax="3">
          3 3 3 3 3
        </DataArray>
      </Cells>
    </Piece>
  </UnstructuredGrid>
</VTKFile>
