<?xml version="1.0" ?> 
<!-- 
# vtk DataFile Version 3.0
-->
<VTKFile type="UnstructuredGrid" version="0.1" compressor="vtkZLibDataCompressor" byte_order="LittleEndian">
  <UnstructuredGrid>
    <FieldData>
      <DataArray type="Float64" Name="TIME" NumberOfTuples="1" format="ascii">
1.000000000000000e-01 
      </DataArray>
    </FieldData>

    <Piece NumberOfPoints="135" NumberOfCells="5" >
      <Points>
        <DataArray type="Float64" NumberOfComponents="3" format="ascii">
-5.000000000000000e-01 -5.000000000000000e-01 -1.000000000000000e+00
5.000000000000000e-01 -5.000000000000000e-01 -1.000000000000000e+00
5.000000000000000e-01 -3.000000000000000e-01 -1.000000000000000e+00
-5.000000000000000e-01 -3.000000000000000e-01 -1.000000000000000e+00
-5.000000000000000e-01 -5.000000000000000e-01 -3.250000000000000e-01
5.000000000000000e-01 -5.000000000000000e-01 -3.250000000000000e-01
5.000000000000000e-01 -3.000000000000000e-01 -3.250000000000000e-01
-5.000000000000000e-01 -3.000000000000000e-01 -3.250000000000000e-01
0.000000000000000e+00 -5.000000000000000e-01 -1.000000000000000e+00
5.000000000000000e-01 -4.000000000000000e-01 -1.000000000000000e+00
0.000000000000000e+00 -3.000000000000000e-01 -1.000000000000000e+00
-5.000000000000000e-01 -4.000000000000000e-01 -1.000000000000000e+00
0.000000000000000e+00 -5.000000000000000e-01 -3.250000000000000e-01
5.000000000000000e-01 -4.000000000000000e-01 -3.250000000000000e-01
0.000000000000000e+00 -3.000000000000000e-01 -3.250000000000000e-01
-5.000000000000000e-01 -4.000000000000000e-01 -3.250000000000000e-01
-5.000000000000000e-01 -5.000000000000000e-01 -6.625000000000001e-01
5.000000000000000e-01 -5.000000000000000e-01 -6.625000000000001e-01
5.000000000000000e-01 -3.000000000000000e-01 -6.625000000000001e-01
-5.000000000000000e-01 -3.000000000000000e-01 -6.625000000000001e-01
-5.000000000000000e-01 -4.000000000000000e-01 -6.624999999999999e-01
5.000000000000000e-01 -4.000000000000000e-01 -6.624999999999999e-01
0.000000000000000e+00 -5.000000000000000e-01 -6.624999999999999e-01
0.000000000000000e+00 -3.000000000000000e-01 -6.624999999999998e-01
0.000000000000000e+00 -4.000000000000000e-01 -1.000000000000000e+00
0.000000000000000e+00 -4.000000000000000e-01 -3.250000000000000e-01
0.000000000000000e+00 -4.000000000000000e-01 -6.625000000000002e-01
-5.000000000000000e-01 -3.000000000000000e-01 -1.000000000000000e+00
5.000000000000000e-01 -3.000000000000000e-01 -1.000000000000000e+00
5.000000000000000e-01 -1.000000000000000e-01 -1.000000000000000e+00
-5.000000000000000e-01 -1.000000000000000e-01 -1.000000000000000e+00
-5.000000000000000e-01 -3.000000000000000e-01 -3.250000000000000e-01
5.000000000000000e-01 -3.000000000000000e-01 -3.250000000000000e-01
5.000000000000000e-01 -1.000000000000000e-01 -3.250000000000000e-01
-5.000000000000000e-01 -1.000000000000000e-01 -3.250000000000000e-01
0.000000000000000e+00 -3.000000000000000e-01 -1.000000000000000e+00
5.000000000000000e-01 -2.000000000000000e-01 -1.000000000000000e+00
0.000000000000000e+00 -1.000000000000000e-01 -1.000000000000000e+00
-5.000000000000000e-01 -2.000000000000000e-01 -1.000000000000000e+00
0.000000000000000e+00 -3.000000000000000e-01 -3.250000000000000e-01
5.000000000000000e-01 -2.000000000000000e-01 -3.250000000000000e-01
0.000000000000000e+00 -1.000000000000000e-01 -3.250000000000001e-01
-5.000000000000000e-01 -2.000000000000000e-01 -3.250000000000000e-01
-5.000000000000000e-01 -3.000000000000000e-01 -6.625000000000001e-01
5.000000000000000e-01 -3.000000000000000e-01 -6.625000000000001e-01
5.000000000000000e-01 -1.000000000000000e-01 -6.625000000000001e-01
-5.000000000000000e-01 -1.000000000000000e-01 -6.625000000000001e-01
-5.000000000000000e-01 -2.000000000000000e-01 -6.624999999999999e-01
5.000000000000000e-01 -2.000000000000000e-01 -6.624999999999999e-01
0.000000000000000e+00 -3.000000000000000e-01 -6.624999999999998e-01
0.000000000000000e+00 -1.000000000000001e-01 -6.624999999999998e-01
0.000000000000000e+00 -2.000000000000000e-01 -1.000000000000000e+00
0.000000000000000e+00 -2.000000000000000e-01 -3.250000000000001e-01
0.000000000000000e+00 -1.999999999999999e-01 -6.625000000000003e-01
-5.000000000000000e-01 -1.000000000000000e-01 -1.000000000000000e+00
5.000000000000000e-01 -1.000000000000000e-01 -1.000000000000000e+00
5.000000000000000e-01 1.000000000000000e-01 -1.000000000000000e+00
-5.000000000000000e-01 1.000000000000000e-01 -1.000000000000000e+00
-5.000000000000000e-01 -1.000000000000000e-01 -3.250000000000000e-01
5.000000000000000e-01 -1.000000000000000e-01 -3.250000000000000e-01
5.000000000000000e-01 1.000000000000000e-01 -3.250000000000000e-01
-5.000000000000000e-01 1.000000000000000e-01 -3.250000000000000e-01
0.000000000000000e+00 -1.000000000000000e-01 -1.000000000000000e+00
5.000000000000001e-01 -5.204170427930421e-17 -1.000000000000000e+00
0.000000000000000e+00 1.000000000000000e-01 -1.000000000000000e+00
-5.000000000000001e-01 -5.204170427930421e-17 -1.000000000000000e+00
0.000000000000000e+00 -1.000000000000000e-01 -3.250000000000001e-01
5.000000000000001e-01 -5.204170427930421e-17 -3.250000000000001e-01
0.000000000000000e+00 1.000000000000000e-01 -3.250000000000001e-01
-5.000000000000001e-01 -5.204170427930421e-17 -3.250000000000001e-01
-5.000000000000000e-01 -1.000000000000000e-01 -6.625000000000001e-01
5.000000000000000e-01 -1.000000000000000e-01 -6.625000000000001e-01
5.000000000000000e-01 1.000000000000000e-01 -6.625000000000001e-01
-5.000000000000000e-01 1.000000000000000e-01 -6.625000000000001e-01
-5.000000000000000e-01 -4.857225732735060e-17 -6.624999999999999e-01
5.000000000000000e-01 -4.857225732735060e-17 -6.624999999999999e-01
0.000000000000000e+00 -1.000000000000001e-01 -6.624999999999998e-01
0.000000000000000e+00 1.000000000000001e-01 -6.624999999999998e-01
0.000000000000000e+00 -4.857225732735060e-17 -1.000000000000000e+00
0.000000000000000e+00 -4.857225732735060e-17 -3.250000000000000e-01
0.000000000000000e+00 -4.683753385137379e-17 -6.625000000000003e-01
-5.000000000000000e-01 1.000000000000000e-01 -1.000000000000000e+00
5.000000000000000e-01 1.000000000000000e-01 -1.000000000000000e+00
5.000000000000000e-01 3.000000000000000e-01 -1.000000000000000e+00
-5.000000000000000e-01 3.000000000000000e-01 -1.000000000000000e+00
-5.000000000000000e-01 1.000000000000000e-01 -3.250000000000000e-01
5.000000000000000e-01 1.000000000000000e-01 -3.250000000000000e-01
5.000000000000000e-01 3.000000000000000e-01 -3.250000000000000e-01
-5.000000000000000e-01 3.000000000000000e-01 -3.250000000000000e-01
0.000000000000000e+00 1.000000000000000e-01 -1.000000000000000e+00
5.000000000000000e-01 2.000000000000000e-01 -1.000000000000000e+00
0.000000000000000e+00 3.000000000000000e-01 -1.000000000000000e+00
-5.000000000000000e-01 2.000000000000000e-01 -1.000000000000000e+00
0.000000000000000e+00 1.000000000000000e-01 -3.250000000000001e-01
5.000000000000000e-01 2.000000000000000e-01 -3.250000000000001e-01
0.000000000000000e+00 3.000000000000000e-01 -3.250000000000000e-01
-5.000000000000000e-01 2.000000000000000e-01 -3.250000000000001e-01
-5.000000000000000e-01 1.000000000000000e-01 -6.625000000000001e-01
5.000000000000000e-01 1.000000000000000e-01 -6.625000000000001e-01
5.000000000000000e-01 3.000000000000000e-01 -6.625000000000001e-01
-5.000000000000000e-01 3.000000000000000e-01 -6.625000000000001e-01
-5.000000000000000e-01 2.000000000000000e-01 -6.624999999999999e-01
5.000000000000000e-01 2.000000000000000e-01 -6.624999999999999e-01
0.000000000000000e+00 1.000000000000001e-01 -6.624999999999998e-01
0.000000000000000e+00 3.000000000000000e-01 -6.624999999999998e-01
0.000000000000000e+00 2.000000000000000e-01 -1.000000000000000e+00
0.000000000000000e+00 2.000000000000000e-01 -3.250000000000000e-01
0.000000000000000e+00 2.000000000000000e-01 -6.625000000000003e-01
-5.000000000000000e-01 3.000000000000000e-01 -1.000000000000000e+00
5.000000000000000e-01 3.000000000000000e-01 -1.000000000000000e+00
5.000000000000000e-01 5.000000000000000e-01 -1.000000000000000e+00
-5.000000000000000e-01 5.000000000000000e-01 -1.000000000000000e+00
-5.000000000000000e-01 3.000000000000000e-01 -3.250000000000000e-01
5.000000000000000e-01 3.000000000000000e-01 -3.250000000000000e-01
5.000000000000000e-01 5.000000000000000e-01 -3.250000000000000e-01
-5.000000000000000e-01 5.000000000000000e-01 -3.250000000000000e-01
0.000000000000000e+00 3.000000000000000e-01 -1.000000000000000e+00
5.000000000000000e-01 4.000000000000000e-01 -1.000000000000000e+00
0.000000000000000e+00 5.000000000000000e-01 -1.000000000000000e+00
-5.000000000000000e-01 4.000000000000000e-01 -1.000000000000000e+00
0.000000000000000e+00 3.000000000000000e-01 -3.250000000000000e-01
5.000000000000000e-01 4.000000000000000e-01 -3.250000000000000e-01
0.000000000000000e+00 5.000000000000000e-01 -3.250000000000000e-01
-5.000000000000000e-01 4.000000000000000e-01 -3.250000000000000e-01
-5.000000000000000e-01 3.000000000000000e-01 -6.625000000000001e-01
5.000000000000000e-01 3.000000000000000e-01 -6.625000000000001e-01
5.000000000000000e-01 5.000000000000000e-01 -6.625000000000001e-01
-5.000000000000000e-01 5.000000000000000e-01 -6.625000000000001e-01
-5.000000000000000e-01 4.000000000000000e-01 -6.624999999999999e-01
5.000000000000000e-01 4.000000000000000e-01 -6.624999999999999e-01
0.000000000000000e+00 3.000000000000000e-01 -6.624999999999998e-01
0.000000000000000e+00 5.000000000000000e-01 -6.624999999999999e-01
0.000000000000000e+00 4.000000000000000e-01 -1.000000000000000e+00
0.000000000000000e+00 4.000000000000000e-01 -3.250000000000000e-01
0.000000000000000e+00 4.000000000000001e-01 -6.625000000000002e-01
        </DataArray>
      </Points>

      <Cells>
        <DataArray type="Int32" Name="connectivity" format="ascii">
0 1 2 3 4 5 6 7 8 9 10 11 12 13 14 15 16 17 18 19 20 21 22 23 24 25 26 27 28 29 30 31 32 33 34 35 36 37 38 39 40 41 42 43 44 45 46 47 48 49 50 51 52 53 54 55 56 57 58 59 60 61 62 63 64 65 66 67 68 69 70 71 72 73 74 75 76 77 78 79 80 81 82 83 84 85 86 87 88 89 90 91 92 93 94 95 96 97 98 99 100 101 102 103 104 105 106 107 108 109 110 111 112 113 114 115 116 117 118 119 120 121 122 123 124 125 126 127 128 129 130 131 132 133 134 
        </DataArray>
        <DataArray type="Int32" Name="offsets" format="ascii">
27 54 81 108 135 
        </DataArray>
        <DataArray type="UInt8" Name="types" format="ascii">
29 29 29 29 29 
        </DataArray>
      </Cells>

  <PointData>
        <DataArray type="Float64" Name="displacement" NumberOfComponents="3" format="ascii">
0.000000000000000e+00 0.000000000000000e+00 0.000000000000000e+00
0.000000000000000e+00 0.000000000000000e+00 0.000000000000000e+00
0.000000000000000e+00 0.000000000000000e+00 0.000000000000000e+00
0.000000000000000e+00 0.000000000000000e+00 0.000000000000000e+00
1.635793017117742e-05 -1.135584689479153e-05 -6.807820568212174e-03
-1.635793017116211e-05 -1.135584689479251e-05 -6.807820568212196e-03
-1.066032715102101e-05 1.067423073240532e-06 -6.839791533963377e-03
1.066032715103392e-05 1.067423073245733e-06 -6.839791533963360e-03
0.000000000000000e+00 0.000000000000000e+00 0.000000000000000e+00
0.000000000000000e+00 0.000000000000000e+00 0.000000000000000e+00
0.000000000000000e+00 0.000000000000000e+00 0.000000000000000e+00
0.000000000000000e+00 0.000000000000000e+00 0.000000000000000e+00
7.519111472776424e-18 2.564205491571894e-06 -6.868686209129285e-03
-1.487161957965601e-05 8.863338078160851e-07 -6.767483780101807e-03
6.369687763352339e-18 -1.897422302143841e-06 -6.865614187600755e-03
1.487161957966989e-05 8.863338078208890e-07 -6.767483780101786e-03
-1.134440068716018e-05 2.811238851462188e-06 -3.414953700538845e-03
1.134440068716221e-05 2.811238851458487e-06 -3.414953700538851e-03
5.814194385328530e-06 -1.101797683840808e-06 -3.419856498896142e-03
-5.814194385327259e-06 -1.101797683841764e-06 -3.419856498896133e-03
-9.808851990787899e-06 -1.780781881485680e-06 -3.421040868732276e-03
9.808851990789905e-06 -1.780781881482801e-06 -3.421040868732284e-03
9.675233840012246e-19 -3.903620589172900e-06 -3.434171264099292e-03
7.703764655277862e-19 -8.368277622411999e-07 -3.430513906386881e-03
0.000000000000000e+00 0.000000000000000e+00 0.000000000000000e+00
6.534965067185334e-18 -2.816381096021965e-06 -6.898074233784301e-03
9.701968317409959e-19 -1.294862106062163e-06 -3.430185136338514e-03
0.000000000000000e+00 0.000000000000000e+00 0.000000000000000e+00
0.000000000000000e+00 0.000000000000000e+00 0.000000000000000e+00
0.000000000000000e+00 0.000000000000000e+00 0.000000000000000e+00
0.000000000000000e+00 0.000000000000000e+00 0.000000000000000e+00
1.066032715103392e-05 1.067423073245733e-06 -6.839791533963360e-03
-1.066032715102101e-05 1.067423073240532e-06 -6.839791533963377e-03
-9.651883371518827e-06 -2.391016689964276e-06 -6.813237386851836e-03
9.651883371520257e-06 -2.391016689962191e-06 -6.813237386851827e-03
0.000000000000000e+00 0.000000000000000e+00 0.000000000000000e+00
0.000000000000000e+00 0.000000000000000e+00 0.000000000000000e+00
0.000000000000000e+00 0.000000000000000e+00 0.000000000000000e+00
0.000000000000000e+00 0.000000000000000e+00 0.000000000000000e+00
6.369687763352339e-18 -1.897422302143841e-06 -6.865614187600755e-03
-7.621324532545743e-06 -2.721915094144483e-06 -6.897468009609266e-03
1.580351721339711e-18 1.085654591233556e-06 -6.872275701020902e-03
7.621324532555411e-06 -2.721915094140719e-06 -6.897468009609254e-03
-5.814194385327259e-06 -1.101797683841764e-06 -3.419856498896133e-03
5.814194385328530e-06 -1.101797683840808e-06 -3.419856498896142e-03
6.507038377673582e-06 1.106344489548043e-06 -3.420486052388227e-03
-6.507038377672425e-06 1.106344489551278e-06 -3.420486052388220e-03
-3.375299353411144e-06 1.107481190976401e-06 -3.417603817843689e-03
3.375299353411836e-06 1.107481190973221e-06 -3.417603817843699e-03
7.703764655277862e-19 -8.368277622411999e-07 -3.430513906386881e-03
8.562973701148942e-19 -7.270777440311604e-07 -3.430033229126594e-03
0.000000000000000e+00 0.000000000000000e+00 0.000000000000000e+00
5.294855892845835e-18 8.827126635075644e-07 -6.835587525154379e-03
6.413230550797130e-19 -1.118054120600652e-06 -3.431636846548279e-03
0.000000000000000e+00 0.000000000000000e+00 0.000000000000000e+00
0.000000000000000e+00 0.000000000000000e+00 0.000000000000000e+00
0.000000000000000e+00 0.000000000000000e+00 0.000000000000000e+00
0.000000000000000e+00 0.000000000000000e+00 0.000000000000000e+00
9.651883371520257e-06 -2.391016689962191e-06 -6.813237386851827e-03
-9.651883371518827e-06 -2.391016689964276e-06 -6.813237386851836e-03
-9.651883371517131e-06 2.391016689960693e-06 -6.813237386851837e-03
9.651883371517631e-06 2.391016689959751e-06 -6.813237386851830e-03
0.000000000000000e+00 0.000000000000000e+00 0.000000000000000e+00
0.000000000000000e+00 0.000000000000000e+00 0.000000000000000e+00
0.000000000000000e+00 0.000000000000000e+00 0.000000000000000e+00
0.000000000000000e+00 0.000000000000000e+00 0.000000000000000e+00
1.580351721339711e-18 1.085654591233556e-06 -6.872275701020902e-03
-1.193455315536704e-05 -1.625244467544189e-18 -6.735645300872291e-03
7.765174543953798e-19 -1.085654591237664e-06 -6.872275701020895e-03
1.193455315536286e-05 -1.197704587417581e-18 -6.735645300872284e-03
-6.507038377672425e-06 1.106344489551278e-06 -3.420486052388220e-03
6.507038377673582e-06 1.106344489548043e-06 -3.420486052388227e-03
6.507038377671678e-06 -1.106344489545705e-06 -3.420486052388226e-03
-6.507038377671609e-06 -1.106344489545827e-06 -3.420486052388221e-03
-9.465566403847212e-06 3.619689420972846e-18 -3.423210898559729e-03
9.465566403848587e-06 2.214832338392385e-18 -3.423210898559734e-03
8.562973701148942e-19 -7.270777440311604e-07 -3.430033229126594e-03
1.162182143192103e-18 7.270777440344337e-07 -3.430033229126593e-03
0.000000000000000e+00 0.000000000000000e+00 0.000000000000000e+00
-1.137671127280932e-18 -2.605579224872635e-18 -6.907298498532384e-03
1.126209712713397e-18 2.219173382247063e-18 -3.428549781019982e-03
0.000000000000000e+00 0.000000000000000e+00 0.000000000000000e+00
0.000000000000000e+00 0.000000000000000e+00 0.000000000000000e+00
0.000000000000000e+00 0.000000000000000e+00 0.000000000000000e+00
0.000000000000000e+00 0.000000000000000e+00 0.000000000000000e+00
9.651883371517631e-06 2.391016689959751e-06 -6.813237386851830e-03
-9.651883371517131e-06 2.391016689960693e-06 -6.813237386851837e-03
-1.066032715102119e-05 -1.067423073252675e-06 -6.839791533963364e-03
1.066032715102432e-05 -1.067423073240503e-06 -6.839791533963369e-03
0.000000000000000e+00 0.000000000000000e+00 0.000000000000000e+00
0.000000000000000e+00 0.000000000000000e+00 0.000000000000000e+00
0.000000000000000e+00 0.000000000000000e+00 0.000000000000000e+00
0.000000000000000e+00 0.000000000000000e+00 0.000000000000000e+00
7.765174543953798e-19 -1.085654591237664e-06 -6.872275701020895e-03
-7.621324532543667e-06 2.721915094138425e-06 -6.897468009609263e-03
1.196434037996699e-18 1.897422302142249e-06 -6.865614187600747e-03
7.621324532549727e-06 2.721915094140148e-06 -6.897468009609260e-03
-6.507038377671609e-06 -1.106344489545827e-06 -3.420486052388221e-03
6.507038377671678e-06 -1.106344489545705e-06 -3.420486052388226e-03
5.814194385324768e-06 1.101797683839936e-06 -3.419856498896139e-03
-5.814194385329094e-06 1.101797683837829e-06 -3.419856498896136e-03
-3.375299353410582e-06 -1.107481190975082e-06 -3.417603817843692e-03
3.375299353408517e-06 -1.107481190973777e-06 -3.417603817843696e-03
1.162182143192103e-18 7.270777440344337e-07 -3.430033229126593e-03
2.293871100283052e-18 8.368277622396417e-07 -3.430513906386880e-03
0.000000000000000e+00 0.000000000000000e+00 0.000000000000000e+00
2.996379050912087e-18 -8.827126635099378e-07 -6.835587525154369e-03
1.404592384784444e-18 1.118054120601552e-06 -3.431636846548278e-03
0.000000000000000e+00 0.000000000000000e+00 0.000000000000000e+00
0.000000000000000e+00 0.000000000000000e+00 0.000000000000000e+00
0.000000000000000e+00 0.000000000000000e+00 0.000000000000000e+00
0.000000000000000e+00 0.000000000000000e+00 0.000000000000000e+00
1.066032715102432e-05 -1.067423073240503e-06 -6.839791533963369e-03
-1.066032715102119e-05 -1.067423073252675e-06 -6.839791533963364e-03
-1.635793017116313e-05 1.135584689478538e-05 -6.807820568212176e-03
1.635793017116972e-05 1.135584689480815e-05 -6.807820568212182e-03
0.000000000000000e+00 0.000000000000000e+00 0.000000000000000e+00
0.000000000000000e+00 0.000000000000000e+00 0.000000000000000e+00
0.000000000000000e+00 0.000000000000000e+00 0.000000000000000e+00
0.000000000000000e+00 0.000000000000000e+00 0.000000000000000e+00
1.196434037996699e-18 1.897422302142249e-06 -6.865614187600747e-03
-1.487161957965818e-05 -8.863338078309201e-07 -6.767483780101785e-03
3.392366953753473e-18 -2.564205491579699e-06 -6.868686209129277e-03
1.487161957965858e-05 -8.863338078089277e-07 -6.767483780101795e-03
-5.814194385329094e-06 1.101797683837829e-06 -3.419856498896136e-03
5.814194385324768e-06 1.101797683839936e-06 -3.419856498896139e-03
1.134440068715483e-05 -2.811238851456622e-06 -3.414953700538845e-03
-1.134440068715443e-05 -2.811238851453701e-06 -3.414953700538850e-03
-9.808851990789571e-06 1.780781881481944e-06 -3.421040868732281e-03
9.808851990785265e-06 1.780781881483098e-06 -3.421040868732280e-03
2.293871100283052e-18 8.368277622396417e-07 -3.430513906386880e-03
1.494377877193399e-18 3.903620589160640e-06 -3.434171264099288e-03
0.000000000000000e+00 0.000000000000000e+00 0.000000000000000e+00
-1.598774687942492e-19 2.816381096018970e-06 -6.898074233784295e-03
2.699970458932286e-18 1.294862106056680e-06 -3.430185136338513e-03
        </DataArray>
      </PointData>

    </Piece>
  </UnstructuredGrid>
</VTKFile>
