<?xml version="1.0" ?> 
<!-- 
# vtk DataFile Version 3.0
-->
<VTKFile type="UnstructuredGrid" version="0.1" compressor="vtkZLibDataCompressor" byte_order="LittleEndian">
  <UnstructuredGrid>
    <FieldData>
      <DataArray type="Float64" Name="TIME" NumberOfTuples="1" format="ascii">
1.000000000000000e-01 
      </DataArray>
    </FieldData>

    <Piece NumberOfPoints="116" NumberOfCells="17" >
      <Points>
        <DataArray type="Float64" NumberOfComponents="3" format="ascii">
5.000000000000000e-01 -1.666666666670000e-01 -4.166666666670000e-01
5.000000000000000e-01 -3.333333333330000e-01 -2.500000000000000e-01
5.000000000000000e-01 -1.666666666670000e-01 -8.333333333329999e-02
5.000000000000000e-01 0.000000000000000e+00 -2.500000000000000e-01
-5.000000000000000e-01 -1.666666666670000e-01 -4.166666666670000e-01
-5.000000000000000e-01 -3.333333333330000e-01 -2.500000000000000e-01
-5.000000000000000e-01 -1.666666666670000e-01 -8.333333333329999e-02
-5.000000000000000e-01 0.000000000000000e+00 -2.500000000000000e-01
5.000000000000000e-01 1.666666666670000e-01 -4.166666666670000e-01
5.000000000000000e-01 0.000000000000000e+00 -2.500000000000000e-01
5.000000000000000e-01 1.666666666670000e-01 -8.333333333329999e-02
5.000000000000000e-01 3.333333333330000e-01 -2.500000000000000e-01
-5.000000000000000e-01 1.666666666670000e-01 -4.166666666670000e-01
-5.000000000000000e-01 0.000000000000000e+00 -2.500000000000000e-01
-5.000000000000000e-01 1.666666666670000e-01 -8.333333333329999e-02
-5.000000000000000e-01 3.333333333330000e-01 -2.500000000000000e-01
5.000000000000000e-01 -3.333333333330000e-01 -2.500000000000000e-01
5.000000000000000e-01 -5.000000000000000e-01 -8.333333333329999e-02
5.000000000000000e-01 -3.333333333330000e-01 8.333333333329999e-02
5.000000000000000e-01 -1.666666666670000e-01 -8.333333333329999e-02
-5.000000000000000e-01 -3.333333333330000e-01 -2.500000000000000e-01
-5.000000000000000e-01 -5.000000000000000e-01 -8.333333333329999e-02
-5.000000000000000e-01 -3.333333333330000e-01 8.333333333329999e-02
-5.000000000000000e-01 -1.666666666670000e-01 -8.333333333329999e-02
5.000000000000000e-01 0.000000000000000e+00 -2.500000000000000e-01
5.000000000000000e-01 -1.666666666670000e-01 -8.333333333329999e-02
5.000000000000000e-01 0.000000000000000e+00 8.333333333329999e-02
5.000000000000000e-01 1.666666666670000e-01 -8.333333333329999e-02
-5.000000000000000e-01 0.000000000000000e+00 -2.500000000000000e-01
-5.000000000000000e-01 -1.666666666670000e-01 -8.333333333329999e-02
-5.000000000000000e-01 0.000000000000000e+00 8.333333333329999e-02
-5.000000000000000e-01 1.666666666670000e-01 -8.333333333329999e-02
5.000000000000000e-01 3.333333333330000e-01 -2.500000000000000e-01
5.000000000000000e-01 1.666666666670000e-01 -8.333333333329999e-02
5.000000000000000e-01 3.333333333330000e-01 8.333333333329999e-02
5.000000000000000e-01 5.000000000000000e-01 -8.333333333329999e-02
-5.000000000000000e-01 3.333333333330000e-01 -2.500000000000000e-01
-5.000000000000000e-01 1.666666666670000e-01 -8.333333333329999e-02
-5.000000000000000e-01 3.333333333330000e-01 8.333333333329999e-02
-5.000000000000000e-01 5.000000000000000e-01 -8.333333333329999e-02
5.000000000000000e-01 -1.666666666670000e-01 -8.333333333329999e-02
5.000000000000000e-01 -3.333333333330000e-01 8.333333333329999e-02
5.000000000000000e-01 -1.666666666670000e-01 2.500000000000000e-01
5.000000000000000e-01 0.000000000000000e+00 8.333333333329999e-02
-5.000000000000000e-01 -1.666666666670000e-01 -8.333333333329999e-02
-5.000000000000000e-01 -3.333333333330000e-01 8.333333333329999e-02
-5.000000000000000e-01 -1.666666666670000e-01 2.500000000000000e-01
-5.000000000000000e-01 0.000000000000000e+00 8.333333333329999e-02
5.000000000000000e-01 1.666666666670000e-01 -8.333333333329999e-02
5.000000000000000e-01 0.000000000000000e+00 8.333333333329999e-02
5.000000000000000e-01 1.666666666670000e-01 2.500000000000000e-01
5.000000000000000e-01 3.333333333330000e-01 8.333333333329999e-02
-5.000000000000000e-01 1.666666666670000e-01 -8.333333333329999e-02
-5.000000000000000e-01 0.000000000000000e+00 8.333333333329999e-02
-5.000000000000000e-01 1.666666666670000e-01 2.500000000000000e-01
-5.000000000000000e-01 3.333333333330000e-01 8.333333333329999e-02
5.000000000000000e-01 5.000000000000000e-01 -4.166666666670000e-01
5.000000000000000e-01 3.333333333330000e-01 -2.500000000000000e-01
5.000000000000000e-01 5.000000000000000e-01 -8.333333333329999e-02
-5.000000000000000e-01 5.000000000000000e-01 -4.166666666670000e-01
-5.000000000000000e-01 3.333333333330000e-01 -2.500000000000000e-01
-5.000000000000000e-01 5.000000000000000e-01 -8.333333333329999e-02
5.000000000000000e-01 5.000000000000000e-01 -8.333333333329999e-02
5.000000000000000e-01 3.333333333330000e-01 8.333333333329999e-02
5.000000000000000e-01 5.000000000000000e-01 2.500000000000000e-01
-5.000000000000000e-01 5.000000000000000e-01 -8.333333333329999e-02
-5.000000000000000e-01 3.333333333330000e-01 8.333333333329999e-02
-5.000000000000000e-01 5.000000000000000e-01 2.500000000000000e-01
5.000000000000000e-01 -5.000000000000000e-01 -4.166666666670000e-01
5.000000000000000e-01 -5.000000000000000e-01 -8.333333333329999e-02
5.000000000000000e-01 -3.333333333330000e-01 -2.500000000000000e-01
-5.000000000000000e-01 -5.000000000000000e-01 -4.166666666670000e-01
-5.000000000000000e-01 -5.000000000000000e-01 -8.333333333329999e-02
-5.000000000000000e-01 -3.333333333330000e-01 -2.500000000000000e-01
5.000000000000000e-01 -5.000000000000000e-01 -8.333333333329999e-02
5.000000000000000e-01 -5.000000000000000e-01 2.500000000000000e-01
5.000000000000000e-01 -3.333333333330000e-01 8.333333333329999e-02
-5.000000000000000e-01 -5.000000000000000e-01 -8.333333333329999e-02
-5.000000000000000e-01 -5.000000000000000e-01 2.500000000000000e-01
-5.000000000000000e-01 -3.333333333330000e-01 8.333333333329999e-02
5.000000000000000e-01 -3.333333333330000e-01 8.333333333329999e-02
5.000000000000000e-01 -5.000000000000000e-01 2.500000000000000e-01
5.000000000000000e-01 -1.666666666670000e-01 2.500000000000000e-01
-5.000000000000000e-01 -3.333333333330000e-01 8.333333333329999e-02
-5.000000000000000e-01 -5.000000000000000e-01 2.500000000000000e-01
-5.000000000000000e-01 -1.666666666670000e-01 2.500000000000000e-01
5.000000000000000e-01 0.000000000000000e+00 8.333333333329999e-02
5.000000000000000e-01 -1.666666666670000e-01 2.500000000000000e-01
5.000000000000000e-01 1.666666666670000e-01 2.500000000000000e-01
-5.000000000000000e-01 0.000000000000000e+00 8.333333333329999e-02
-5.000000000000000e-01 -1.666666666670000e-01 2.500000000000000e-01
-5.000000000000000e-01 1.666666666670000e-01 2.500000000000000e-01
5.000000000000000e-01 3.333333333330000e-01 8.333333333329999e-02
5.000000000000000e-01 1.666666666670000e-01 2.500000000000000e-01
5.000000000000000e-01 5.000000000000000e-01 2.500000000000000e-01
-5.000000000000000e-01 3.333333333330000e-01 8.333333333329999e-02
-5.000000000000000e-01 1.666666666670000e-01 2.500000000000000e-01
-5.000000000000000e-01 5.000000000000000e-01 2.500000000000000e-01
5.000000000000000e-01 1.666666666670000e-01 -4.166666666670000e-01
5.000000000000000e-01 3.333333333330000e-01 -2.500000000000000e-01
5.000000000000000e-01 5.000000000000000e-01 -4.166666666670000e-01
-5.000000000000000e-01 1.666666666670000e-01 -4.166666666670000e-01
-5.000000000000000e-01 3.333333333330000e-01 -2.500000000000000e-01
-5.000000000000000e-01 5.000000000000000e-01 -4.166666666670000e-01
5.000000000000000e-01 -1.666666666670000e-01 -4.166666666670000e-01
5.000000000000000e-01 0.000000000000000e+00 -2.500000000000000e-01
5.000000000000000e-01 1.666666666670000e-01 -4.166666666670000e-01
-5.000000000000000e-01 -1.666666666670000e-01 -4.166666666670000e-01
-5.000000000000000e-01 0.000000000000000e+00 -2.500000000000000e-01
-5.000000000000000e-01 1.666666666670000e-01 -4.166666666670000e-01
5.000000000000000e-01 -5.000000000000000e-01 -4.166666666670000e-01
5.000000000000000e-01 -3.333333333330000e-01 -2.500000000000000e-01
5.000000000000000e-01 -1.666666666670000e-01 -4.166666666670000e-01
-5.000000000000000e-01 -5.000000000000000e-01 -4.166666666670000e-01
-5.000000000000000e-01 -3.333333333330000e-01 -2.500000000000000e-01
-5.000000000000000e-01 -1.666666666670000e-01 -4.166666666670000e-01
        </DataArray>
      </Points>

      <Cells>
        <DataArray type="Int32" Name="connectivity" format="ascii">
0 1 2 3 4 5 6 7 8 9 10 11 12 13 14 15 16 17 18 19 20 21 22 23 24 25 26 27 28 29 30 31 32 33 34 35 36 37 38 39 40 41 42 43 44 45 46 47 48 49 50 51 52 53 54 55 56 57 58 59 60 61 62 63 64 65 66 67 68 69 70 71 72 73 74 75 76 77 78 79 80 81 82 83 84 85 86 87 88 89 90 91 92 93 94 95 96 97 98 99 100 101 102 103 104 105 106 107 108 109 110 111 112 113 114 115 
        </DataArray>
        <DataArray type="Int32" Name="offsets" format="ascii">
8 16 24 32 40 48 56 62 68 74 80 86 92 98 104 110 116 
        </DataArray>
        <DataArray type="UInt8" Name="types" format="ascii">
12 12 12 12 12 12 12 13 13 13 13 13 13 13 13 13 13 
        </DataArray>
      </Cells>

  <PointData>
        <DataArray type="Float64" Name="displacement" NumberOfComponents="3" format="ascii">
-9.916172561589688e-06 -3.541872658003703e-07 -5.925827209590594e-03
-7.890193234739710e-06 -2.194387574695704e-07 -7.638124225338796e-03
-2.542807644982248e-06 1.158914577900218e-07 -9.317975899227563e-03
-1.030509964752518e-05 -5.920449279873154e-18 -7.633350168712963e-03
9.916172561596515e-06 -3.541872657937294e-07 -5.925827209590574e-03
7.890193234757719e-06 -2.194387574668643e-07 -7.638124225338781e-03
2.542807645039792e-06 1.158914577644532e-07 -9.317975899227528e-03
1.030509964751321e-05 -5.206696943070348e-18 -7.633350168712969e-03
-9.916172561588128e-06 3.541872658029930e-07 -5.925827209590585e-03
-1.030509964752518e-05 -5.920449279873154e-18 -7.633350168712963e-03
-2.542807644953417e-06 -1.158914577870985e-07 -9.317975899227544e-03
-7.890193234741788e-06 2.194387574543442e-07 -7.638124225338774e-03
9.916172561600071e-06 3.541872657978015e-07 -5.925827209590564e-03
1.030509964751321e-05 -5.206696943070348e-18 -7.633350168712969e-03
2.542807644997046e-06 -1.158914577953731e-07 -9.317975899227509e-03
7.890193234737723e-06 2.194387574704868e-07 -7.638124225338796e-03
-7.890193234739710e-06 -2.194387574695704e-07 -7.638124225338796e-03
-2.883027144780975e-06 2.868578946419696e-06 -9.316886957427186e-03
-1.650989192027661e-06 1.476327331247057e-06 -1.101340827598376e-02
-2.542807644982248e-06 1.158914577900218e-07 -9.317975899227563e-03
7.890193234757719e-06 -2.194387574668643e-07 -7.638124225338781e-03
2.883027144826352e-06 2.868578946369635e-06 -9.316886957427103e-03
1.650989192112586e-06 1.476327331204960e-06 -1.101340827598370e-02
2.542807645039792e-06 1.158914577644532e-07 -9.317975899227528e-03
-1.030509964752518e-05 -5.920449279873154e-18 -7.633350168712963e-03
-2.542807644982248e-06 1.158914577900218e-07 -9.317975899227563e-03
-1.740744452190784e-06 -1.019108169257718e-17 -1.101306075243906e-02
-2.542807644953417e-06 -1.158914577870985e-07 -9.317975899227544e-03
1.030509964751321e-05 -5.206696943070348e-18 -7.633350168712969e-03
2.542807645039792e-06 1.158914577644532e-07 -9.317975899227528e-03
1.740744452226411e-06 -2.843491788688212e-17 -1.101306075243902e-02
2.542807644997046e-06 -1.158914577953731e-07 -9.317975899227509e-03
-7.890193234741788e-06 2.194387574543442e-07 -7.638124225338774e-03
-2.542807644953417e-06 -1.158914577870985e-07 -9.317975899227544e-03
-1.650989192051424e-06 -1.476327331250450e-06 -1.101340827598374e-02
-2.883027144783335e-06 -2.868578946394073e-06 -9.316886957427141e-03
7.890193234737723e-06 2.194387574704868e-07 -7.638124225338796e-03
2.542807644997046e-06 -1.158914577953731e-07 -9.317975899227509e-03
1.650989192078559e-06 -1.476327331254661e-06 -1.101340827598370e-02
2.883027144800677e-06 -2.868578946402363e-06 -9.316886957427117e-03
-2.542807644982248e-06 1.158914577900218e-07 -9.317975899227563e-03
-1.650989192027661e-06 1.476327331247057e-06 -1.101340827598376e-02
-1.192292968119006e-06 4.728114823322581e-07 -1.270479731520408e-02
-1.740744452190784e-06 -1.019108169257718e-17 -1.101306075243906e-02
2.542807645039792e-06 1.158914577644532e-07 -9.317975899227528e-03
1.650989192112586e-06 1.476327331204960e-06 -1.101340827598370e-02
1.192292968188342e-06 4.728114823242194e-07 -1.270479731520401e-02
1.740744452226411e-06 -2.843491788688212e-17 -1.101306075243902e-02
-2.542807644953417e-06 -1.158914577870985e-07 -9.317975899227544e-03
-1.740744452190784e-06 -1.019108169257718e-17 -1.101306075243906e-02
-1.192292968129194e-06 -4.728114823835316e-07 -1.270479731520406e-02
-1.650989192051424e-06 -1.476327331250450e-06 -1.101340827598374e-02
2.542807644997046e-06 -1.158914577953731e-07 -9.317975899227509e-03
1.740744452226411e-06 -2.843491788688212e-17 -1.101306075243902e-02
1.192292968181517e-06 -4.728114823825095e-07 -1.270479731520404e-02
1.650989192078559e-06 -1.476327331254661e-06 -1.101340827598370e-02
-2.265817306464535e-05 4.214045252868459e-06 -5.931943411504410e-03
-7.890193234741788e-06 2.194387574543442e-07 -7.638124225338774e-03
-2.883027144783335e-06 -2.868578946394073e-06 -9.316886957427141e-03
2.265817306464768e-05 4.214045252904159e-06 -5.931943411504418e-03
7.890193234737723e-06 2.194387574704868e-07 -7.638124225338796e-03
2.883027144800677e-06 -2.868578946402363e-06 -9.316886957427117e-03
-2.883027144783335e-06 -2.868578946394073e-06 -9.316886957427141e-03
-1.650989192051424e-06 -1.476327331250450e-06 -1.101340827598374e-02
-1.003132407549881e-06 -1.657508920147202e-06 -1.270558340917832e-02
2.883027144800677e-06 -2.868578946402363e-06 -9.316886957427117e-03
1.650989192078559e-06 -1.476327331254661e-06 -1.101340827598370e-02
1.003132407588575e-06 -1.657508920160640e-06 -1.270558340917826e-02
-2.265817306464391e-05 -4.214045252894698e-06 -5.931943411504425e-03
-2.883027144780975e-06 2.868578946419696e-06 -9.316886957427186e-03
-7.890193234739710e-06 -2.194387574695704e-07 -7.638124225338796e-03
2.265817306464916e-05 -4.214045252880015e-06 -5.931943411504413e-03
2.883027144826352e-06 2.868578946369635e-06 -9.316886957427103e-03
7.890193234757719e-06 -2.194387574668643e-07 -7.638124225338781e-03
-2.883027144780975e-06 2.868578946419696e-06 -9.316886957427186e-03
-1.003132407512401e-06 1.657508920134225e-06 -1.270558340917837e-02
-1.650989192027661e-06 1.476327331247057e-06 -1.101340827598376e-02
2.883027144826352e-06 2.868578946369635e-06 -9.316886957427103e-03
1.003132407634747e-06 1.657508920093217e-06 -1.270558340917829e-02
1.650989192112586e-06 1.476327331204960e-06 -1.101340827598370e-02
-1.650989192027661e-06 1.476327331247057e-06 -1.101340827598376e-02
-1.003132407512401e-06 1.657508920134225e-06 -1.270558340917837e-02
-1.192292968119006e-06 4.728114823322581e-07 -1.270479731520408e-02
1.650989192112586e-06 1.476327331204960e-06 -1.101340827598370e-02
1.003132407634747e-06 1.657508920093217e-06 -1.270558340917829e-02
1.192292968188342e-06 4.728114823242194e-07 -1.270479731520401e-02
-1.740744452190784e-06 -1.019108169257718e-17 -1.101306075243906e-02
-1.192292968119006e-06 4.728114823322581e-07 -1.270479731520408e-02
-1.192292968129194e-06 -4.728114823835316e-07 -1.270479731520406e-02
1.740744452226411e-06 -2.843491788688212e-17 -1.101306075243902e-02
1.192292968188342e-06 4.728114823242194e-07 -1.270479731520401e-02
1.192292968181517e-06 -4.728114823825095e-07 -1.270479731520404e-02
-1.650989192051424e-06 -1.476327331250450e-06 -1.101340827598374e-02
-1.192292968129194e-06 -4.728114823835316e-07 -1.270479731520406e-02
-1.003132407549881e-06 -1.657508920147202e-06 -1.270558340917832e-02
1.650989192078559e-06 -1.476327331254661e-06 -1.101340827598370e-02
1.192292968181517e-06 -4.728114823825095e-07 -1.270479731520404e-02
1.003132407588575e-06 -1.657508920160640e-06 -1.270558340917826e-02
-9.916172561588128e-06 3.541872658029930e-07 -5.925827209590585e-03
-7.890193234741788e-06 2.194387574543442e-07 -7.638124225338774e-03
-2.265817306464535e-05 4.214045252868459e-06 -5.931943411504410e-03
9.916172561600071e-06 3.541872657978015e-07 -5.925827209590564e-03
7.890193234737723e-06 2.194387574704868e-07 -7.638124225338796e-03
2.265817306464768e-05 4.214045252904159e-06 -5.931943411504418e-03
-9.916172561589688e-06 -3.541872658003703e-07 -5.925827209590594e-03
-1.030509964752518e-05 -5.920449279873154e-18 -7.633350168712963e-03
-9.916172561588128e-06 3.541872658029930e-07 -5.925827209590585e-03
9.916172561596515e-06 -3.541872657937294e-07 -5.925827209590574e-03
1.030509964751321e-05 -5.206696943070348e-18 -7.633350168712969e-03
9.916172561600071e-06 3.541872657978015e-07 -5.925827209590564e-03
-2.265817306464391e-05 -4.214045252894698e-06 -5.931943411504425e-03
-7.890193234739710e-06 -2.194387574695704e-07 -7.638124225338796e-03
-9.916172561589688e-06 -3.541872658003703e-07 -5.925827209590594e-03
2.265817306464916e-05 -4.214045252880015e-06 -5.931943411504413e-03
7.890193234757719e-06 -2.194387574668643e-07 -7.638124225338781e-03
9.916172561596515e-06 -3.541872657937294e-07 -5.925827209590574e-03
        </DataArray>
      </PointData>

    </Piece>
  </UnstructuredGrid>
</VTKFile>
