<?xml version="1.0" ?> 
<!-- 
# vtk DataFile Version 3.0
-->
<VTKFile type="UnstructuredGrid" version="0.1" compressor="vtkZLibDataCompressor" byte_order="LittleEndian">
  <UnstructuredGrid>
    <FieldData>
      <DataArray type="Float64" Name="TIME" NumberOfTuples="1" format="ascii">
1.000000000000000e+00 
      </DataArray>
    </FieldData>

    <Piece NumberOfPoints="35" NumberOfCells="2" >
      <Points>
        <DataArray type="Float64" NumberOfComponents="3" format="ascii">
-1.500000000000000e+00 3.000000000000000e+00 5.000000000000000e-01
-1.500000000000000e+00 3.000000000000000e+00 -5.000000000000000e-01
1.500000000000000e+00 3.000000000000000e+00 -5.000000000000000e-01
1.500000000000000e+00 3.000000000000000e+00 5.000000000000000e-01
-1.500000000000000e+00 2.000000000000000e+00 5.000000000000001e-01
-1.500000000000000e+00 2.000000000000000e+00 -5.000000000000000e-01
1.500000000000000e+00 2.000000000000000e+00 -5.000000000000000e-01
1.500000000000000e+00 2.000000000000000e+00 5.000000000000000e-01
-1.500000000000000e+00 3.000000000000000e+00 0.000000000000000e+00
0.000000000000000e+00 3.000000000000000e+00 -5.000000000000000e-01
1.500000000000000e+00 3.000000000000000e+00 0.000000000000000e+00
0.000000000000000e+00 3.000000000000000e+00 5.000000000000000e-01
-1.500000000000000e+00 2.000000000000000e+00 8.326672684688674e-17
0.000000000000000e+00 2.000000000000000e+00 -5.000000000000000e-01
1.500000000000000e+00 2.000000000000000e+00 0.000000000000000e+00
0.000000000000000e+00 2.000000000000000e+00 5.000000000000001e-01
-1.500000000000000e+00 2.500000000000000e+00 5.000000000000000e-01
-1.500000000000000e+00 2.500000000000000e+00 -5.000000000000000e-01
1.500000000000000e+00 2.500000000000000e+00 -5.000000000000000e-01
1.500000000000000e+00 2.500000000000000e+00 5.000000000000000e-01
0.000000000000000e+00 2.500000000000000e+00 5.000000000000000e-01
0.000000000000000e+00 2.500000000000000e+00 -5.000000000000000e-01
-1.500000000000000e+00 2.500000000000000e+00 2.081668171172169e-17
1.500000000000000e+00 2.500000000000000e+00 0.000000000000000e+00
0.000000000000000e+00 3.000000000000000e+00 0.000000000000000e+00
0.000000000000000e+00 2.000000000000000e+00 5.551115123125783e-17
0.000000000000000e+00 2.500000000000000e+00 1.387778780781446e-17
-1.500000000000000e+00 2.800000000000000e+00 5.000000000000000e-01
1.500000000000000e+00 2.800000000000000e+00 5.000000000000000e-01
1.500000000000000e+00 2.000000000000000e-01 5.000000000000000e-01
-1.500000000000000e+00 2.000000000000000e-01 5.000000000000000e-01
-1.500000000000000e+00 2.800000000000000e+00 -5.000000000000000e-01
1.500000000000000e+00 2.800000000000000e+00 -5.000000000000000e-01
1.500000000000000e+00 2.000000000000000e-01 -5.000000000000000e-01
-1.500000000000000e+00 2.000000000000000e-01 -5.000000000000000e-01
        </DataArray>
      </Points>

      <Cells>
        <DataArray type="Int32" Name="connectivity" format="ascii">
0 1 2 3 4 5 6 7 8 9 10 11 12 13 14 15 16 17 18 19 20 21 22 23 24 25 26 27 28 29 30 31 32 33 34 
        </DataArray>
        <DataArray type="Int32" Name="offsets" format="ascii">
27 35 
        </DataArray>
        <DataArray type="UInt8" Name="types" format="ascii">
29 12 
        </DataArray>
      </Cells>

  <PointData>
        <DataArray type="Float64" Name="displacement" NumberOfComponents="3" format="ascii">
0.000000000000000e+00 -2.843158130259924e-02 -1.313633165749101e-10
0.000000000000000e+00 -2.843158142616143e-02 0.000000000000000e+00
-3.487862190705856e-12 -2.843158149085112e-02 0.000000000000000e+00
5.227315329354367e-12 -2.843158147559407e-02 -8.796650725644686e-12
0.000000000000000e+00 -1.827744463539140e-02 -1.966241325509504e-10
0.000000000000000e+00 -1.827744520194614e-02 0.000000000000000e+00
1.975762208412140e-11 -1.827744529891089e-02 0.000000000000000e+00
-6.043094516949772e-11 -1.827744515477068e-02 -3.667583159421393e-11
0.000000000000000e+00 -2.843158144649863e-02 -4.310578289660593e-11
1.294333896169315e-11 -2.843158147014475e-02 0.000000000000000e+00
4.555550445342676e-12 -2.843158147832414e-02 -1.391233582173609e-11
1.965678625567442e-11 -2.843158141673979e-02 -4.734294859667297e-11
0.000000000000000e+00 -1.827744526868399e-02 2.289447795382998e-10
-4.204107597393439e-12 -1.827744520038835e-02 0.000000000000000e+00
1.536013500652805e-12 -1.827744521626088e-02 -6.581141248802819e-11
5.529454180606629e-11 -1.827744514854788e-02 9.890839750976745e-12
0.000000000000000e+00 -2.335451317091711e-02 -4.360019989119679e-11
0.000000000000000e+00 -2.335451340865504e-02 0.000000000000000e+00
3.284962640311911e-12 -2.335451336283889e-02 0.000000000000000e+00
4.639705973698669e-12 -2.335451334979148e-02 -2.773163395549125e-11
1.007404501561865e-11 -2.335451329126633e-02 3.122699796623380e-12
-4.189376393507762e-12 -2.335451336946765e-02 0.000000000000000e+00
0.000000000000000e+00 -2.335451329305551e-02 -3.429689127571339e-11
-5.040018027686440e-12 -2.335451335303452e-02 -1.884471496280530e-11
1.315813325534745e-11 -2.843158146530546e-02 -2.111143266459779e-11
-1.564996138780219e-11 -1.827744524468413e-02 9.478449395605324e-11
5.862670621138569e-12 -2.335451334029423e-02 1.504863063440215e-12
0.000000000000000e+00 -2.640075434340258e-02 1.967399703567191e-10
2.066527464986573e-11 -2.640075420731378e-02 -4.155682706630873e-11
6.421260195530770e-13 0.000000000000000e+00 1.019385636969303e-11
0.000000000000000e+00 0.000000000000000e+00 -5.653901588027149e-11
0.000000000000000e+00 -2.640075416615489e-02 0.000000000000000e+00
-3.299008851315494e-11 -2.640075423849207e-02 0.000000000000000e+00
8.880590546034715e-12 0.000000000000000e+00 0.000000000000000e+00
0.000000000000000e+00 0.000000000000000e+00 0.000000000000000e+00
        </DataArray>
      </PointData>

    </Piece>
  </UnstructuredGrid>
</VTKFile>
