<?xml version="1.0" ?> 
<!-- 
# vtk DataFile Version 3.0
-->
<VTKFile type="UnstructuredGrid" version="0.1" compressor="vtkZLibDataCompressor" byte_order="LittleEndian">
  <UnstructuredGrid>
    <FieldData>
      <DataArray type="Float64" Name="TIME" NumberOfTuples="1" format="ascii">
1.000000000000000e-01 
      </DataArray>
    </FieldData>

    <Piece NumberOfPoints="977" NumberOfCells="58" >
      <Points>
        <DataArray type="Float64" NumberOfComponents="3" format="ascii">
-1.000000000000000e+00 2.000000000000000e-01 -4.000000000000000e+00
-3.333333333335000e-01 2.000000000000000e-01 -4.000000000000000e+00
-3.333333333335000e-01 4.000000000000000e-01 -4.000000000000000e+00
-1.000000000000000e+00 4.000000000000000e-01 -4.000000000000000e+00
-1.000000000000000e+00 2.000000000000000e-01 -3.000000000000000e+00
-3.333333333335000e-01 2.000000000000000e-01 -3.000000000000000e+00
-3.333333333335000e-01 4.000000000000000e-01 -3.000000000000000e+00
-1.000000000000000e+00 4.000000000000000e-01 -3.000000000000000e+00
-6.666666666668750e-01 2.000000000000000e-01 -4.000000000000000e+00
-3.333333333335000e-01 3.000000000000000e-01 -4.000000000000000e+00
-6.666666666668750e-01 4.000000000000000e-01 -4.000000000000000e+00
-1.000000000000000e+00 3.000000000000000e-01 -4.000000000000000e+00
-6.666666666668750e-01 2.000000000000000e-01 -3.000000000000000e+00
-3.333333333335000e-01 3.000000000000000e-01 -3.000000000000000e+00
-6.666666666668750e-01 4.000000000000000e-01 -3.000000000000000e+00
-1.000000000000000e+00 3.000000000000000e-01 -3.000000000000000e+00
-1.000000000000000e+00 2.000000000000000e-01 -3.500000000000000e+00
-3.333333333335000e-01 2.000000000000000e-01 -3.500000000000000e+00
-3.333333333335000e-01 4.000000000000000e-01 -3.500000000000000e+00
-1.000000000000000e+00 4.000000000000000e-01 -3.500000000000000e+00
-1.000000000000000e+00 2.999999999999999e-01 -3.500000000000000e+00
-3.333333333335000e-01 2.999999999999999e-01 -3.500000000000000e+00
-6.666666666668749e-01 2.000000000000000e-01 -3.500000000000000e+00
-6.666666666668751e-01 4.000000000000000e-01 -3.500000000000000e+00
-6.666666666668750e-01 3.000000000000000e-01 -4.000000000000000e+00
-6.666666666668751e-01 3.000000000000000e-01 -3.000000000000000e+00
-6.666666666668750e-01 3.000000000000000e-01 -3.500000000000000e+00
-3.333333333335000e-01 2.000000000000000e-01 -4.000000000000000e+00
3.333333333335000e-01 2.000000000000000e-01 -4.000000000000000e+00
3.333333333335000e-01 4.000000000000000e-01 -4.000000000000000e+00
-3.333333333335000e-01 4.000000000000000e-01 -4.000000000000000e+00
-3.333333333335000e-01 2.000000000000000e-01 -3.000000000000000e+00
3.333333333335000e-01 2.000000000000000e-01 -3.000000000000000e+00
3.333333333335000e-01 4.000000000000000e-01 -3.000000000000000e+00
-3.333333333335000e-01 4.000000000000000e-01 -3.000000000000000e+00
5.551115123125783e-17 2.000000000000000e-01 -4.000000000000001e+00
3.333333333335000e-01 3.000000000000000e-01 -4.000000000000000e+00
6.938893903907228e-17 4.000000000000000e-01 -4.000000000000000e+00
-3.333333333335000e-01 3.000000000000000e-01 -4.000000000000000e+00
6.245004513516506e-17 2.000000000000000e-01 -3.000000000000000e+00
3.333333333335000e-01 3.000000000000000e-01 -3.000000000000000e+00
4.857225732735060e-17 4.000000000000000e-01 -3.000000000000000e+00
-3.333333333335000e-01 3.000000000000000e-01 -3.000000000000000e+00
-3.333333333335000e-01 2.000000000000000e-01 -3.500000000000000e+00
3.333333333335000e-01 2.000000000000000e-01 -3.500000000000000e+00
3.333333333335000e-01 4.000000000000000e-01 -3.500000000000000e+00
-3.333333333335000e-01 4.000000000000000e-01 -3.500000000000000e+00
-3.333333333335000e-01 2.999999999999999e-01 -3.500000000000000e+00
3.333333333335000e-01 2.999999999999999e-01 -3.500000000000000e+00
7.632783294297951e-17 2.000000000000000e-01 -3.500000000000000e+00
6.938893903907228e-17 4.000000000000000e-01 -3.500000000000000e+00
5.637851296924623e-17 3.000000000000000e-01 -4.000000000000000e+00
4.423544863740858e-17 2.999999999999999e-01 -3.000000000000000e+00
5.637851296924623e-17 3.000000000000000e-01 -3.500000000000000e+00
3.333333333335000e-01 2.000000000000000e-01 -4.000000000000000e+00
1.000000000000000e+00 2.000000000000000e-01 -4.000000000000000e+00
1.000000000000000e+00 4.000000000000000e-01 -4.000000000000000e+00
3.333333333335000e-01 4.000000000000000e-01 -4.000000000000000e+00
3.333333333335000e-01 2.000000000000000e-01 -3.000000000000000e+00
1.000000000000000e+00 2.000000000000000e-01 -3.000000000000000e+00
1.000000000000000e+00 4.000000000000000e-01 -3.000000000000000e+00
3.333333333335000e-01 4.000000000000000e-01 -3.000000000000000e+00
6.666666666668750e-01 2.000000000000000e-01 -4.000000000000000e+00
1.000000000000000e+00 3.000000000000000e-01 -4.000000000000000e+00
6.666666666668750e-01 4.000000000000000e-01 -4.000000000000000e+00
3.333333333335000e-01 3.000000000000000e-01 -4.000000000000000e+00
6.666666666668749e-01 2.000000000000000e-01 -3.000000000000000e+00
1.000000000000000e+00 3.000000000000000e-01 -3.000000000000000e+00
6.666666666668749e-01 4.000000000000000e-01 -3.000000000000000e+00
3.333333333335000e-01 3.000000000000000e-01 -3.000000000000000e+00
3.333333333335000e-01 2.000000000000000e-01 -3.500000000000000e+00
1.000000000000000e+00 2.000000000000000e-01 -3.500000000000000e+00
1.000000000000000e+00 4.000000000000000e-01 -3.500000000000000e+00
3.333333333335000e-01 4.000000000000000e-01 -3.500000000000000e+00
3.333333333335000e-01 2.999999999999999e-01 -3.500000000000000e+00
1.000000000000000e+00 2.999999999999999e-01 -3.500000000000000e+00
6.666666666668750e-01 2.000000000000000e-01 -3.500000000000000e+00
6.666666666668750e-01 4.000000000000000e-01 -3.500000000000000e+00
6.666666666668749e-01 2.999999999999999e-01 -4.000000000000000e+00
6.666666666668751e-01 3.000000000000000e-01 -3.000000000000000e+00
6.666666666668749e-01 3.000000000000000e-01 -3.500000000000000e+00
-1.000000000000000e+00 2.000000000000000e-01 -3.000000000000000e+00
-3.333333333335000e-01 2.000000000000000e-01 -3.000000000000000e+00
-3.333333333335000e-01 4.000000000000000e-01 -3.000000000000000e+00
-1.000000000000000e+00 4.000000000000000e-01 -3.000000000000000e+00
-1.000000000000000e+00 2.000000000000000e-01 -2.000000000000000e+00
-3.333333333335000e-01 2.000000000000000e-01 -2.000000000000000e+00
-3.333333333335001e-01 4.000000000000000e-01 -2.000000000000000e+00
-1.000000000000000e+00 4.000000000000000e-01 -2.000000000000000e+00
-6.666666666668750e-01 2.000000000000000e-01 -3.000000000000000e+00
-3.333333333335000e-01 3.000000000000000e-01 -3.000000000000000e+00
-6.666666666668750e-01 4.000000000000000e-01 -3.000000000000000e+00
-1.000000000000000e+00 3.000000000000000e-01 -3.000000000000000e+00
-6.666666666668750e-01 2.000000000000000e-01 -2.000000000000000e+00
-3.333333333335001e-01 3.000000000000000e-01 -2.000000000000000e+00
-6.666666666668751e-01 4.000000000000000e-01 -2.000000000000000e+00
-1.000000000000000e+00 3.000000000000000e-01 -2.000000000000000e+00
-1.000000000000000e+00 2.000000000000000e-01 -2.500000000000000e+00
-3.333333333335000e-01 2.000000000000000e-01 -2.500000000000000e+00
-3.333333333335000e-01 4.000000000000000e-01 -2.500000000000000e+00
-1.000000000000000e+00 4.000000000000000e-01 -2.500000000000000e+00
-1.000000000000000e+00 3.000000000000000e-01 -2.500000000000000e+00
-3.333333333334999e-01 3.000000000000000e-01 -2.500000000000000e+00
-6.666666666668750e-01 2.000000000000000e-01 -2.500000000000000e+00
-6.666666666668749e-01 4.000000000000000e-01 -2.500000000000000e+00
-6.666666666668751e-01 3.000000000000000e-01 -3.000000000000000e+00
-6.666666666668751e-01 3.000000000000000e-01 -2.000000000000000e+00
-6.666666666668750e-01 3.000000000000000e-01 -2.500000000000000e+00
-3.333333333335000e-01 2.000000000000000e-01 -3.000000000000000e+00
3.333333333335000e-01 2.000000000000000e-01 -3.000000000000000e+00
3.333333333335000e-01 4.000000000000000e-01 -3.000000000000000e+00
-3.333333333335000e-01 4.000000000000000e-01 -3.000000000000000e+00
-3.333333333335000e-01 2.000000000000000e-01 -2.000000000000000e+00
3.333333333335000e-01 2.000000000000000e-01 -2.000000000000000e+00
3.333333333335000e-01 4.000000000000000e-01 -2.000000000000000e+00
-3.333333333335001e-01 4.000000000000000e-01 -2.000000000000000e+00
6.245004513516506e-17 2.000000000000000e-01 -3.000000000000000e+00
3.333333333335000e-01 3.000000000000000e-01 -3.000000000000000e+00
4.857225732735060e-17 4.000000000000000e-01 -3.000000000000000e+00
-3.333333333335000e-01 3.000000000000000e-01 -3.000000000000000e+00
5.551115123125783e-17 2.000000000000000e-01 -2.000000000000000e+00
3.333333333335000e-01 3.000000000000000e-01 -2.000000000000000e+00
5.551115123125783e-17 4.000000000000000e-01 -2.000000000000000e+00
-3.333333333335001e-01 3.000000000000000e-01 -2.000000000000000e+00
-3.333333333335000e-01 2.000000000000000e-01 -2.500000000000000e+00
3.333333333335000e-01 2.000000000000000e-01 -2.500000000000000e+00
3.333333333335000e-01 3.999999999999999e-01 -2.500000000000000e+00
-3.333333333335000e-01 4.000000000000000e-01 -2.500000000000000e+00
-3.333333333334999e-01 3.000000000000000e-01 -2.500000000000000e+00
3.333333333334999e-01 2.999999999999999e-01 -2.500000000000000e+00
4.857225732735060e-17 2.000000000000000e-01 -2.500000000000000e+00
5.551115123125783e-17 3.999999999999999e-01 -2.500000000000000e+00
4.423544863740858e-17 2.999999999999999e-01 -3.000000000000000e+00
5.290906601729262e-17 2.999999999999999e-01 -2.000000000000000e+00
4.597017211338539e-17 3.000000000000000e-01 -2.500000000000000e+00
3.333333333335000e-01 2.000000000000000e-01 -3.000000000000000e+00
1.000000000000000e+00 2.000000000000000e-01 -3.000000000000000e+00
1.000000000000000e+00 4.000000000000000e-01 -3.000000000000000e+00
3.333333333335000e-01 4.000000000000000e-01 -3.000000000000000e+00
3.333333333335000e-01 2.000000000000000e-01 -2.000000000000000e+00
[...]
  <PointData>
        <DataArray type="Float64" Name="displacement" NumberOfComponents="3" format="ascii">
-8.602587408654949e-06 -2.375078648803668e-04 -3.956368395470532e-05
-1.807335381131364e-06 -2.945596164061010e-04 -4.491431339906267e-05
6.683747881294925e-06 -2.950059008686414e-04 6.136685184552094e-05
2.064809134466567e-05 -2.381513724744725e-04 6.519989781702012e-05
-1.036322826112865e-05 -1.041703671581255e-03 -8.264488775596449e-05
-3.329110863343057e-06 -1.104262658084972e-03 -8.037324624533614e-05
6.121733911820335e-06 -1.105184156870646e-03 1.265324754930382e-04
1.767449208611899e-05 -1.042633687042899e-03 1.249717456210003e-04
-4.408232981180369e-06 -2.745666628442379e-04 -4.242599770830587e-05
2.397320278057993e-06 -2.937895531668440e-04 8.398738577083073e-06
1.351766500885870e-05 -2.750975275795495e-04 6.273632994545655e-05
6.006697787463022e-06 -2.369075817619863e-04 1.241576659770848e-05
-6.730570487285329e-06 -1.080730132926073e-03 -8.104171331637545e-05
1.416704791305747e-06 -1.104060283183755e-03 2.297459302689423e-05
1.208050123207910e-05 -1.081621834696725e-03 1.261565778424420e-04
3.690354260528251e-06 -1.041487611162431e-03 2.132400164274282e-05
-9.892241233855834e-06 -5.741807838749403e-04 -6.325005694843461e-05
-2.833494703879307e-06 -6.371904200910904e-04 -6.243841226541109e-05
6.723404075561939e-06 -6.381667799287624e-04 9.596101954880116e-05
1.907113607775102e-05 -5.750633387114674e-04 9.555872205969447e-05
4.635172758478299e-06 -5.738713841447687e-04 1.622574923619028e-05
1.966819389545809e-06 -6.369606575015425e-04 1.663633780635018e-05
-5.994941052644153e-06 -6.137064051780134e-04 -6.227963129184079e-05
1.317610026866504e-05 -6.146063184429537e-04 9.618137874978579e-05
4.500336522102791e-06 -2.738762480697092e-04 1.019370293487845e-05
2.708511707550602e-06 -1.080505000146570e-03 2.249472877821273e-05
3.627798976147605e-06 -6.134271930709949e-04 1.685586283312560e-05
-1.807335381131364e-06 -2.945596164061010e-04 -4.491431339906267e-05
1.787505529154487e-06 -2.945741652844258e-04 -4.493389407095908e-05
-6.689232022615432e-06 -2.950262891682827e-04 6.136605942967527e-05
6.683747881294925e-06 -2.950059008686414e-04 6.136685184552094e-05
-3.329110863343057e-06 -1.104262658084972e-03 -8.037324624533614e-05
3.251819713524772e-06 -1.104339033137126e-03 -8.032323549477370e-05
-6.156136179206742e-06 -1.105259349098983e-03 1.265539674343706e-04
6.121733911820335e-06 -1.105184156870646e-03 1.265324754930382e-04
-6.540560391791249e-09 -3.002932693061118e-04 -4.606986689670425e-05
-2.409618013629497e-06 -2.938075753463655e-04 8.388723862286843e-06
-2.328356403752562e-09 -3.007057391341014e-04 6.095543713449871e-05
2.397320278057993e-06 -2.937895531668440e-04 8.398738577083073e-06
-4.094794463022646e-08 -1.112174530380980e-03 -8.026018686431331e-05
-1.471877298684259e-06 -1.104135940501671e-03 2.300730114146266e-05
-1.831138762053053e-08 -1.113127659644714e-03 1.265235636609580e-04
1.416704791305747e-06 -1.104060283183755e-03 2.297459302689423e-05
-2.833494703879307e-06 -6.371904200910904e-04 -6.243841226541109e-05
2.763440950364456e-06 -6.372917697569918e-04 -6.243202783014834e-05
-6.743700554264674e-06 -6.382671381623524e-04 9.597496296011369e-05
6.723404075561939e-06 -6.381667799287624e-04 9.596101954880116e-05
1.966819389545809e-06 -6.369606575015425e-04 1.663633780635018e-05
-2.010900211504955e-06 -6.370621583109945e-04 1.664735869649706e-05
-3.750107404765087e-08 -6.449473633666053e-04 -6.279850830092158e-05
-9.135274450549024e-09 -6.459764706686450e-04 9.564357182836803e-05
-5.086161557420523e-09 -2.994868709576447e-04 7.605527545744991e-06
-2.883528013098291e-08 -1.111991312545089e-03 2.304998645817999e-05
-2.150175508555559e-08 -6.447471787952596e-04 1.631692085957151e-05
1.787505529154487e-06 -2.945741652844258e-04 -4.493389407095908e-05
8.618361401056946e-06 -2.375213319308776e-04 -3.966082141246449e-05
-2.064982388221511e-05 -2.381959854889241e-04 6.519730700007512e-05
-6.689232022615432e-06 -2.950262891682827e-04 6.136605942967527e-05
3.251819713524772e-06 -1.104339033137126e-03 -8.032323549477370e-05
1.023489532326481e-05 -1.042007276333317e-03 -8.258457761568034e-05
-1.771950375862912e-05 -1.042903080433273e-03 1.250073361131939e-04
-6.156136179206742e-06 -1.105259349098983e-03 1.265539674343706e-04
4.390555359104918e-06 -2.745882157047717e-04 -4.247475791261619e-05
-6.006105443769230e-06 -2.369399185593562e-04 1.237872607854678e-05
-1.352303867774944e-05 -2.751341662077141e-04 6.273469172141322e-05
-2.409618013629497e-06 -2.938075753463655e-04 8.388723862286843e-06
6.645123629897825e-06 -1.080901502929281e-03 -8.096412234310137e-05
-3.770523738879352e-06 -1.041772267596645e-03 2.137024582900620e-05
-1.211533534289178e-05 -1.081783173329741e-03 1.261923403921560e-04
-1.471877298684259e-06 -1.104135940501671e-03 2.300730114146266e-05
2.763440950364456e-06 -6.372917697569918e-04 -6.243202783014834e-05
9.723933965029094e-06 -5.745621796964804e-04 -6.319720240397758e-05
-1.912449063149292e-05 -5.753981659414990e-04 9.560010152261362e-05
-6.743700554264674e-06 -6.382671381623524e-04 9.597496296011369e-05
-2.010900211504955e-06 -6.370621583109945e-04 1.664735869649706e-05
-4.735616606519603e-06 -5.742264407890054e-04 1.627047422409531e-05
5.905272314881783e-06 -6.139284412157751e-04 -6.225843711164809e-05
-1.320668719592921e-05 -6.148154730424490e-04 9.620915287965621e-05
-4.511537150314635e-06 -2.739068599934537e-04 1.017192441159274e-05
-2.767435404788808e-06 -1.080670735902518e-03 2.254717496798911e-05
-3.687047866415327e-06 -6.136428332438690e-04 1.688082019278547e-05
-1.036322826112865e-05 -1.041703671581255e-03 -8.264488775596449e-05
-3.329110863343057e-06 -1.104262658084972e-03 -8.037324624533614e-05
6.121733911820335e-06 -1.105184156870646e-03 1.265324754930382e-04
1.767449208611899e-05 -1.042633687042899e-03 1.249717456210003e-04
-9.284167929067297e-06 -2.328945915597332e-03 -1.160383958223443e-04
-3.132813277522944e-06 -2.384131769731236e-03 -1.147080005066351e-04
5.102902767287913e-06 -2.384880260281138e-03 1.806054040365049e-04
1.554048440187855e-05 -2.329818070079371e-03 1.795362011279322e-04
-6.730570487285329e-06 -1.080730132926073e-03 -8.104171331637545e-05
1.416704791305747e-06 -1.104060283183755e-03 2.297459302689423e-05
1.208050123207910e-05 -1.081621834696725e-03 1.261565778424420e-04
3.690354260528251e-06 -1.041487611162431e-03 2.132400164274282e-05
-6.228874608486279e-06 -2.363461757132674e-03 -1.152953276937636e-04
9.824763916247890e-07 -2.383864524842377e-03 3.293779569031239e-05
1.027534185051321e-05 -2.364274962487928e-03 1.801363548761135e-04
3.108836583173457e-06 -2.328759439702165e-03 3.182204548262810e-05
-1.012428999226770e-05 -1.629988168616368e-03 -9.961779462977457e-05
-3.395208755798855e-06 -1.688876413570701e-03 -9.802703557901754e-05
5.405859454314274e-06 -1.689580995664651e-03 1.543307576612625e-04
1.648774598806353e-05 -1.630879552491342e-03 1.530829211080440e-04
3.179242224973197e-06 -1.629776787964915e-03 2.681970624800809e-05
1.003186964833507e-06 -1.688543286776396e-03 2.815968530084004e-05
-6.760191575700500e-06 -1.666895899205323e-03 -9.871327003323978e-05
1.089290329429658e-05 -1.667669556119004e-03 1.537716592192697e-04
2.708511707550602e-06 -1.080505000146570e-03 2.249472877821273e-05
2.016028149336844e-06 -2.363233848692123e-03 3.241130114271753e-05
2.064059753038205e-06 -1.666607831339318e-03 2.753748135359249e-05
-3.329110863343057e-06 -1.104262658084972e-03 -8.037324624533614e-05
3.251819713524772e-06 -1.104339033137126e-03 -8.032323549477370e-05
-6.156136179206742e-06 -1.105259349098983e-03 1.265539674343706e-04
6.121733911820335e-06 -1.105184156870646e-03 1.265324754930382e-04
-3.132813277522944e-06 -2.384131769731236e-03 -1.147080005066351e-04
3.099865044175532e-06 -2.384101499750760e-03 -1.147251861920646e-04
-5.142473538954948e-06 -2.384853853858746e-03 1.806030836606364e-04
5.102902767287913e-06 -2.384880260281138e-03 1.806054040365049e-04
-4.094794463022646e-08 -1.112174530380980e-03 -8.026018686431331e-05
-1.471877298684259e-06 -1.104135940501671e-03 2.300730114146266e-05
-1.831138762053053e-08 -1.113127659644714e-03 1.265235636609580e-04
1.416704791305747e-06 -1.104060283183755e-03 2.297459302689423e-05
-1.642102902107726e-08 -2.390997751301203e-03 -1.144575685697912e-04
-1.019989654003032e-06 -2.383835873162001e-03 3.293136407271950e-05
-2.148498385044456e-08 -2.391713408918308e-03 1.808065723757859e-04
9.824763916247890e-07 -2.383864524842377e-03 3.293779569031239e-05
-3.395208755798855e-06 -1.688876413570701e-03 -9.802703557901754e-05
3.336131263255207e-06 -1.688885696207494e-03 -9.796759547776815e-05
-5.448430104938033e-06 -1.689591921242880e-03 1.543482739640202e-04
5.405859454314274e-06 -1.689580995664651e-03 1.543307576612625e-04
1.003186964833507e-06 -1.688543286776396e-03 2.815968530084004e-05
-1.054317653429566e-06 -1.688552614568604e-03 2.819361499944851e-05
-2.966124025090592e-08 -1.696137187356694e-03 -9.772363086217223e-05
-2.428514204379622e-08 -1.696819805811528e-03 1.545822760406401e-04
-2.883528013098291e-08 -1.111991312545089e-03 2.304998645817999e-05
-2.010182960705454e-08 -2.390711766787484e-03 3.318374478158794e-05
-2.804816290203755e-08 -1.695789449458655e-03 2.845537690953172e-05
3.251819713524772e-06 -1.104339033137126e-03 -8.032323549477370e-05
1.023489532326481e-05 -1.042007276333317e-03 -8.258457761568034e-05
-1.771950375862912e-05 -1.042903080433273e-03 1.250073361131939e-04
-6.156136179206742e-06 -1.105259349098983e-03 1.265539674343706e-04
3.099865044175532e-06 -2.384101499750760e-03 -1.147251861920646e-04
9.275293733240844e-06 -2.328885325676408e-03 -1.159618083177507e-04
-1.556301198414314e-05 -2.329767265577213e-03 1.795608947832730e-04
-5.142473538954948e-06 -2.384853853858746e-03 1.806030836606364e-04
6.645123629897825e-06 -1.080901502929281e-03 -8.096412234310137e-05
-3.770523738879352e-06 -1.041772267596645e-03 2.137024582900620e-05
-1.211533534289178e-05 -1.081783173329741e-03 1.261923403921560e-04
-1.471877298684259e-06 -1.104135940501671e-03 2.300730114146266e-05
6.201838709213851e-06 -2.363408772176849e-03 -1.152976629244022e-04
-3.125446206443126e-06 -2.328704171478367e-03 3.186475119653928e-05
-1.030725262879578e-05 -2.364229253334400e-03 1.801396278201131e-04
-1.019989654003032e-06 -2.383835873162001e-03 3.293136407271950e-05
3.336131263255207e-06 -1.688885696207494e-03 -9.796759547776815e-05
1.010182280344258e-05 -1.630050399205316e-03 -9.958532145209673e-05
-1.650797397304032e-05 -1.630947267474945e-03 1.531004530930143e-04
-5.448430104938033e-06 -1.689591921242880e-03 1.543482739640202e-04
-1.054317653429566e-06 -1.688552614568604e-03 2.819361499944851e-05
-3.203056914352514e-06 -1.629842983115392e-03 2.684576383818550e-05
6.710511647044646e-06 -1.666923060148551e-03 -9.863085161225855e-05
-1.092388864504477e-05 -1.667700141837691e-03 1.537979375939593e-04
-2.767435404788808e-06 -1.080670735902518e-03 2.254717496798911e-05
-2.045625105102077e-06 -2.363184217035702e-03 3.241393804920421e-05
-2.103395804622063e-06 -1.666636039867197e-03 2.758640787439743e-05
1.767449208611899e-05 -1.042633687042899e-03 1.249717456210003e-04
6.121733911820335e-06 -1.105184156870646e-03 1.265324754930382e-04
1.546797115028294e-05 -1.111428824336215e-03 3.343397808491525e-04
4.556080532582925e-05 -1.048861048838035e-03 3.324255491775811e-04
1.554048440187855e-05 -2.329818070079371e-03 1.795362011279322e-04
5.102902767287913e-06 -2.384880260281138e-03 1.806054040365049e-04
1.335205443049493e-05 -2.390744426227220e-03 4.765983051297800e-04
4.044510853442562e-05 -2.335755993982944e-03 4.755305571107072e-04
1.208050123207910e-05 -1.081621834696725e-03 1.261565778424420e-04
1.080061114815972e-05 -1.107638822727510e-03 2.303157538636171e-04
3.072551477036224e-05 -1.087867540822246e-03 3.340996422605602e-04
3.162077813482539e-05 -1.045104099506740e-03 2.285787821441618e-04
1.027534185051321e-05 -2.364274962487928e-03 1.801363548761135e-04
9.226688047550076e-06 -2.387174914568943e-03 3.284428865202311e-04
2.681294580453321e-05 -2.370163866941073e-03 4.762935236256305e-04
2.799212517098395e-05 -2.332143142811961e-03 3.273552965313609e-04
1.648774598806353e-05 -1.630879552491342e-03 1.530829211080440e-04
5.405859454314274e-06 -1.689580995664651e-03 1.543307576612625e-04
1.420707559980350e-05 -1.695723918128482e-03 4.072886474548654e-04
4.309799645560357e-05 -1.637162024451692e-03 4.061294338100291e-04
2.979580337295607e-05 -1.633330089039112e-03 2.794325852091216e-04
9.808568927639066e-06 -1.691978289645376e-03 2.806518541600157e-04
1.089290329429658e-05 -1.667669556119004e-03 1.537716592192697e-04
2.854210124304460e-05 -1.673831336921347e-03 4.069041465783843e-04
2.141097621133727e-05 -1.084077170335597e-03 2.300046202214965e-04
1.854300242544471e-05 -2.366585001058205e-03 3.280427801544194e-04
1.972077260524270e-05 -1.670078311870854e-03 2.801677266115982e-04
6.121733911820335e-06 -1.105184156870646e-03 1.265324754930382e-04
-6.156136179206742e-06 -1.105259349098983e-03 1.265539674343706e-04
-1.546323262532685e-05 -1.111502904382576e-03 3.343482854139037e-04
1.546797115028294e-05 -1.111428824336215e-03 3.343397808491525e-04
5.102902767287913e-06 -2.384880260281138e-03 1.806054040365049e-04
-5.142473538954948e-06 -2.384853853858746e-03 1.806030836606364e-04
-1.339278296259412e-05 -2.390722239545270e-03 4.765938681377801e-04
1.335205443049493e-05 -2.390744426227220e-03 4.765983051297800e-04
-1.831138762053053e-08 -1.113127659644714e-03 1.265235636609580e-04
-1.081518019807637e-05 -1.107713567526730e-03 2.303299124898758e-04
8.351301877734556e-10 -1.119366683987231e-03 3.341034876610396e-04
1.080061114815972e-05 -1.107638822727510e-03 2.303157538636171e-04
-2.148498385044456e-08 -2.391713408918308e-03 1.808065723757859e-04
-9.266950134034041e-06 -2.387150842450126e-03 3.284404319046640e-04
-2.178276583294912e-08 -2.397572330781810e-03 4.766350403811614e-04
9.226688047550076e-06 -2.387174914568943e-03 3.284428865202311e-04
5.405859454314274e-06 -1.689580995664651e-03 1.543307576612625e-04
-5.448430104938033e-06 -1.689591921242880e-03 1.543482739640202e-04
-1.423218267369616e-05 -1.695738393884697e-03 4.072846514101861e-04
1.420707559980350e-05 -1.695723918128482e-03 4.072886474548654e-04
9.808568927639066e-06 -1.691978289645376e-03 2.806518541600157e-04
-9.842340356587723e-06 -1.691991289818764e-03 2.806580599296862e-04
-2.428514204379622e-08 -1.696819805811528e-03 1.545822760406401e-04
-1.503439786249793e-08 -1.702979644855474e-03 4.073823459089677e-04
-8.660004910426310e-09 -1.115585480514035e-03 2.301961842324386e-04
-2.167659488211904e-08 -2.394000867110731e-03 3.285704817349335e-04
-1.955345969200749e-08 -1.699219467311679e-03 2.808327159131273e-04
-6.156136179206742e-06 -1.105259349098983e-03 1.265539674343706e-04
-1.771950375862912e-05 -1.042903080433273e-03 1.250073361131939e-04
-4.555076759059016e-05 -1.049111318207016e-03 3.324455503386043e-04
-1.546323262532685e-05 -1.111502904382576e-03 3.343482854139037e-04
-5.142473538954948e-06 -2.384853853858746e-03 1.806030836606364e-04
-1.556301198414314e-05 -2.329767265577213e-03 1.795608947832730e-04
-4.047710525611039e-05 -2.335711659807203e-03 4.755380515142029e-04
-1.339278296259412e-05 -2.390722239545270e-03 4.765938681377801e-04
-1.211533534289178e-05 -1.081783173329741e-03 1.261923403921560e-04
-3.163769996589567e-05 -1.045362001688348e-03 2.286060015215157e-04
-3.071638317825485e-05 -1.088022708222442e-03 3.341152732567551e-04
-1.081518019807637e-05 -1.107713567526730e-03 2.303299124898758e-04
-1.030725262879578e-05 -2.364229253334400e-03 1.801396278201131e-04
-2.801952465048897e-05 -2.332095973258356e-03 3.273706517774833e-04
-2.684865438446210e-05 -2.370125050044701e-03 4.762898509865044e-04
-9.266950134034041e-06 -2.387150842450126e-03 3.284404319046640e-04
-5.448430104938033e-06 -1.689591921242880e-03 1.543482739640202e-04
-1.650797397304032e-05 -1.630947267474945e-03 1.531004530930143e-04
-4.310567539546226e-05 -1.637231164224871e-03 4.061257008121478e-04
-1.423218267369616e-05 -1.695738393884697e-03 4.072846514101861e-04
-9.842340356587723e-06 -1.691991289818764e-03 2.806580599296862e-04
-2.980986719321290e-05 -1.633398308954572e-03 2.794400106413487e-04
-1.092388864504477e-05 -1.667700141837691e-03 1.537979375939593e-04
-2.855788956159643e-05 -1.673866716559910e-03 4.068982182730651e-04
-2.142338249663812e-05 -1.084235076880024e-03 2.300291233486583e-04
-1.857695775690366e-05 -2.366543118521283e-03 3.280435506964911e-04
-1.974428164158304e-05 -1.670111617066454e-03 2.801773401817432e-04
-9.284167929067297e-06 -2.328945915597332e-03 -1.160383958223443e-04
-3.132813277522944e-06 -2.384131769731236e-03 -1.147080005066351e-04
5.102902767287913e-06 -2.384880260281138e-03 1.806054040365049e-04
1.554048440187855e-05 -2.329818070079371e-03 1.795362011279322e-04
-7.759111637616345e-06 -4.030490958096451e-03 -1.464608305089364e-04
-2.595780323703296e-06 -4.078071281511194e-03 -1.450917542140672e-04
4.525424232899526e-06 -4.078955042212879e-03 2.274281727471634e-04
1.345596155055675e-05 -4.031389221723637e-03 2.263055979148838e-04
-6.228874608486279e-06 -2.363461757132674e-03 -1.152953276937636e-04
9.824763916247890e-07 -2.383864524842377e-03 3.293779569031239e-05
1.027534185051321e-05 -2.364274962487928e-03 1.801363548761135e-04
3.108836583173457e-06 -2.328759439702165e-03 3.182204548262810e-05
-5.170474670545279e-06 -4.060135301198768e-03 -1.456190870030087e-04
9.698805222923878e-07 -4.077983562990078e-03 4.111561218439759e-05
9.034383302941982e-06 -4.061038471252302e-03 2.270557442045394e-04
2.833118265175561e-06 -4.030408679601718e-03 4.000692027804593e-05
-8.332546876019490e-06 -3.131479362199057e-03 -1.317162286699672e-04
-2.785233957247148e-06 -3.182904725925194e-03 -1.304012152957859e-04
4.910284232797560e-06 -3.183774194527935e-03 2.050675104535451e-04
1.460559402392322e-05 -3.132353279819347e-03 2.040407164678253e-04
3.114880781212942e-06 -3.131336444279368e-03 3.624609245613123e-05
1.067173951003210e-06 -3.182764462030628e-03 3.726955953745149e-05
-5.558381626486570e-06 -3.163513095024897e-03 -1.308949215872517e-04
9.798830615228506e-06 -3.164407964100144e-03 2.047359536066458e-04
2.016028149336844e-06 -2.363233848692123e-03 3.241130114271753e-05
1.934459760217144e-06 -4.060055397055395e-03 4.067922212039408e-05
2.120725337908997e-06 -3.163383040999357e-03 3.687295808513549e-05
-3.132813277522944e-06 -2.384131769731236e-03 -1.147080005066351e-04
3.099865044175532e-06 -2.384101499750760e-03 -1.147251861920646e-04
-5.142473538954948e-06 -2.384853853858746e-03 1.806030836606364e-04
5.102902767287913e-06 -2.384880260281138e-03 1.806054040365049e-04
-2.595780323703296e-06 -4.078071281511194e-03 -1.450917542140672e-04
2.530626735787962e-06 -4.078076440777158e-03 -1.451032095623405e-04
-4.585671631844347e-06 -4.078962551750843e-03 2.274298378993741e-04
4.525424232899526e-06 -4.078955042212879e-03 2.274281727471634e-04
-1.642102902107726e-08 -2.390997751301203e-03 -1.144575685697912e-04
-1.019989654003032e-06 -2.383835873162001e-03 3.293136407271950e-05
-2.148498385044456e-08 -2.391713408918308e-03 1.808065723757859e-04
9.824763916247890e-07 -2.383864524842377e-03 3.293779569031239e-05
-3.031704046675966e-08 -4.084113470786427e-03 -1.449095543359113e-04
-1.032949537916750e-06 -4.077990366967174e-03 4.111126740574168e-05
-2.867447391459508e-08 -4.084982035435637e-03 2.275203738697702e-04
9.698805222923878e-07 -4.077983562990078e-03 4.111561218439759e-05
-2.785233957247148e-06 -3.182904725925194e-03 -1.304012152957859e-04
2.759277915336275e-06 -3.182870421897218e-03 -1.304767950746073e-04
-4.950732156257161e-06 -3.183744334757696e-03 2.050523028603706e-04
4.910284232797560e-06 -3.183774194527935e-03 2.050675104535451e-04
1.067173951003210e-06 -3.182764462030628e-03 3.726955953745149e-05
-1.101873536725234e-06 -3.182732772041608e-03 3.723307324643181e-05
-1.278654955495653e-08 -3.189431439886962e-03 -1.302551572925708e-04