<?xml version="1.0" ?> 
<!-- 
# vtk DataFile Version 3.0
-->
<VTKFile type="UnstructuredGrid" version="0.1" compressor="vtkZLibDataCompressor" byte_order="LittleEndian">
  <UnstructuredGrid>
    <FieldData>
      <DataArray type="Float64" Name="TIME" NumberOfTuples="1" format="ascii">
1.000000000000000e-01 
      </DataArray>
    </FieldData>

    <Piece NumberOfPoints="1204" NumberOfCells="65" >
      <Points>
        <DataArray type="Float64" NumberOfComponents="3" format="ascii">
-1.000000000000000e+00 2.000000000000000e-01 1.000000000000000e+00
-3.333333333335000e-01 2.000000000000000e-01 1.000000000000000e+00
-3.333333333335001e-01 4.000000000000001e-01 1.000000000000000e+00
-1.000000000000000e+00 4.000000000000000e-01 1.000000000000000e+00
-1.000000000000000e+00 2.000000000000000e-01 2.000000000000000e+00
-3.333333333335000e-01 2.000000000000000e-01 2.000000000000000e+00
-3.333333333335000e-01 4.000000000000000e-01 2.000000000000000e+00
-1.000000000000000e+00 4.000000000000000e-01 2.000000000000000e+00
-6.666666666668751e-01 2.000000000000000e-01 1.000000000000000e+00
-3.333333333335001e-01 3.000000000000000e-01 1.000000000000000e+00
-6.666666666668751e-01 4.000000000000000e-01 1.000000000000000e+00
-1.000000000000000e+00 3.000000000000000e-01 1.000000000000000e+00
-6.666666666668750e-01 2.000000000000000e-01 2.000000000000000e+00
-3.333333333335000e-01 3.000000000000000e-01 2.000000000000000e+00
-6.666666666668750e-01 4.000000000000000e-01 2.000000000000000e+00
-1.000000000000000e+00 3.000000000000000e-01 2.000000000000000e+00
-1.000000000000000e+00 2.000000000000000e-01 1.500000000000000e+00
-3.333333333335001e-01 2.000000000000000e-01 1.500000000000001e+00
-3.333333333335000e-01 4.000000000000000e-01 1.500000000000001e+00
-1.000000000000000e+00 4.000000000000000e-01 1.500000000000001e+00
-1.000000000000000e+00 3.000000000000000e-01 1.500000000000000e+00
-3.333333333335000e-01 2.999999999999999e-01 1.500000000000000e+00
-6.666666666668749e-01 2.000000000000000e-01 1.500000000000000e+00
-6.666666666668750e-01 4.000000000000000e-01 1.500000000000000e+00
-6.666666666668750e-01 2.999999999999999e-01 1.000000000000000e+00
-6.666666666668750e-01 3.000000000000000e-01 2.000000000000000e+00
-6.666666666668751e-01 3.000000000000000e-01 1.500000000000001e+00
-3.333333333335000e-01 2.000000000000000e-01 1.000000000000000e+00
3.333333333335000e-01 2.000000000000000e-01 1.000000000000000e+00
3.333333333335000e-01 4.000000000000000e-01 1.000000000000000e+00
-3.333333333335001e-01 4.000000000000001e-01 1.000000000000000e+00
-3.333333333335000e-01 2.000000000000000e-01 2.000000000000000e+00
3.333333333335000e-01 2.000000000000000e-01 2.000000000000000e+00
3.333333333335000e-01 4.000000000000000e-01 2.000000000000000e+00
-3.333333333335000e-01 4.000000000000000e-01 2.000000000000000e+00
5.551115123125783e-17 2.000000000000000e-01 1.000000000000000e+00
3.333333333335000e-01 3.000000000000000e-01 1.000000000000000e+00
5.551115123125783e-17 4.000000000000000e-01 1.000000000000000e+00
-3.333333333335001e-01 3.000000000000000e-01 1.000000000000000e+00
5.551115123125783e-17 2.000000000000000e-01 2.000000000000000e+00
3.333333333335000e-01 3.000000000000000e-01 2.000000000000000e+00
6.938893903907228e-17 4.000000000000000e-01 2.000000000000000e+00
-3.333333333335000e-01 3.000000000000000e-01 2.000000000000000e+00
-3.333333333335001e-01 2.000000000000000e-01 1.500000000000001e+00
3.333333333335001e-01 2.000000000000001e-01 1.500000000000001e+00
3.333333333335000e-01 4.000000000000000e-01 1.500000000000001e+00
-3.333333333335000e-01 4.000000000000000e-01 1.500000000000001e+00
-3.333333333335000e-01 2.999999999999999e-01 1.500000000000000e+00
3.333333333335000e-01 2.999999999999999e-01 1.500000000000000e+00
7.632783294297951e-17 2.000000000000001e-01 1.500000000000000e+00
6.938893903907228e-17 4.000000000000000e-01 1.500000000000000e+00
5.551115123125783e-17 3.000000000000000e-01 1.000000000000000e+00
5.637851296924623e-17 3.000000000000000e-01 2.000000000000000e+00
5.551115123125783e-17 3.000000000000000e-01 1.500000000000001e+00
3.333333333335000e-01 2.000000000000000e-01 1.000000000000000e+00
1.000000000000000e+00 2.000000000000000e-01 1.000000000000000e+00
1.000000000000000e+00 4.000000000000000e-01 1.000000000000000e+00
3.333333333335000e-01 4.000000000000000e-01 1.000000000000000e+00
3.333333333335000e-01 2.000000000000000e-01 2.000000000000000e+00
1.000000000000000e+00 2.000000000000000e-01 2.000000000000000e+00
1.000000000000000e+00 4.000000000000000e-01 2.000000000000000e+00
3.333333333335000e-01 4.000000000000000e-01 2.000000000000000e+00
6.666666666668749e-01 2.000000000000000e-01 1.000000000000000e+00
1.000000000000000e+00 3.000000000000000e-01 1.000000000000000e+00
6.666666666668749e-01 4.000000000000000e-01 1.000000000000000e+00
3.333333333335000e-01 3.000000000000000e-01 1.000000000000000e+00
6.666666666668750e-01 2.000000000000000e-01 2.000000000000000e+00
1.000000000000000e+00 3.000000000000000e-01 2.000000000000000e+00
6.666666666668750e-01 4.000000000000000e-01 2.000000000000000e+00
3.333333333335000e-01 3.000000000000000e-01 2.000000000000000e+00
3.333333333335001e-01 2.000000000000001e-01 1.500000000000001e+00
1.000000000000000e+00 2.000000000000000e-01 1.500000000000000e+00
1.000000000000000e+00 4.000000000000000e-01 1.500000000000001e+00
3.333333333335000e-01 4.000000000000000e-01 1.500000000000001e+00
3.333333333335000e-01 2.999999999999999e-01 1.500000000000000e+00
1.000000000000000e+00 3.000000000000000e-01 1.500000000000000e+00
6.666666666668748e-01 2.000000000000000e-01 1.500000000000001e+00
6.666666666668748e-01 4.000000000000000e-01 1.500000000000000e+00
6.666666666668750e-01 3.000000000000000e-01 1.000000000000000e+00
6.666666666668749e-01 2.999999999999999e-01 2.000000000000000e+00
6.666666666668750e-01 3.000000000000000e-01 1.500000000000000e+00
-1.000000000000000e+00 4.000000000000000e-01 1.000000000000000e+00
-3.333333333335001e-01 4.000000000000001e-01 1.000000000000000e+00
-3.333333333335001e-01 6.000000000000001e-01 1.000000000000000e+00
-1.000000000000000e+00 6.000000000000000e-01 1.000000000000000e+00
-1.000000000000000e+00 4.000000000000000e-01 2.000000000000000e+00
-3.333333333335000e-01 4.000000000000000e-01 2.000000000000000e+00
-3.333333333335000e-01 6.000000000000000e-01 2.000000000000000e+00
-1.000000000000000e+00 5.999999999999999e-01 2.000000000000000e+00
-6.666666666668751e-01 4.000000000000000e-01 1.000000000000000e+00
-3.333333333335000e-01 5.000000000000001e-01 1.000000000000000e+00
-6.666666666668751e-01 5.999999999999999e-01 1.000000000000000e+00
-1.000000000000000e+00 5.000000000000000e-01 1.000000000000000e+00
-6.666666666668750e-01 4.000000000000000e-01 2.000000000000000e+00
-3.333333333335000e-01 5.000000000000001e-01 2.000000000000000e+00
-6.666666666668750e-01 5.999999999999999e-01 2.000000000000000e+00
-1.000000000000000e+00 5.000000000000001e-01 2.000000000000000e+00
-1.000000000000000e+00 4.000000000000000e-01 1.500000000000001e+00
-3.333333333335000e-01 4.000000000000000e-01 1.500000000000001e+00
-3.333333333335000e-01 5.999999999999999e-01 1.500000000000001e+00
-1.000000000000000e+00 6.000000000000001e-01 1.500000000000001e+00
-1.000000000000000e+00 5.000000000000001e-01 1.500000000000000e+00
-3.333333333335000e-01 5.000000000000000e-01 1.500000000000000e+00
-6.666666666668750e-01 4.000000000000000e-01 1.500000000000000e+00
-6.666666666668749e-01 6.000000000000000e-01 1.500000000000000e+00
-6.666666666668750e-01 4.999999999999999e-01 1.000000000000000e+00
-6.666666666668750e-01 5.000000000000000e-01 2.000000000000000e+00
-6.666666666668752e-01 4.999999999999999e-01 1.500000000000001e+00
-3.333333333335001e-01 4.000000000000001e-01 1.000000000000000e+00
3.333333333335000e-01 4.000000000000000e-01 1.000000000000000e+00
3.333333333335000e-01 6.000000000000000e-01 1.000000000000000e+00
-3.333333333335001e-01 6.000000000000001e-01 1.000000000000000e+00
-3.333333333335000e-01 4.000000000000000e-01 2.000000000000000e+00
3.333333333335000e-01 4.000000000000000e-01 2.000000000000000e+00
3.333333333335000e-01 6.000000000000000e-01 2.000000000000000e+00
-3.333333333335000e-01 6.000000000000000e-01 2.000000000000000e+00
5.551115123125783e-17 4.000000000000000e-01 1.000000000000000e+00
3.333333333335001e-01 5.000000000000001e-01 1.000000000000000e+00
4.510281037539698e-17 6.000000000000000e-01 1.000000000000000e+00
-3.333333333335000e-01 5.000000000000001e-01 1.000000000000000e+00
6.938893903907228e-17 4.000000000000000e-01 2.000000000000000e+00
3.333333333335000e-01 5.000000000000001e-01 2.000000000000000e+00
4.857225732735060e-17 6.000000000000000e-01 2.000000000000000e+00
-3.333333333335000e-01 5.000000000000001e-01 2.000000000000000e+00
-3.333333333335000e-01 4.000000000000000e-01 1.500000000000001e+00
3.333333333335000e-01 4.000000000000000e-01 1.500000000000001e+00
3.333333333334999e-01 5.999999999999999e-01 1.500000000000000e+00
-3.333333333335000e-01 5.999999999999999e-01 1.500000000000001e+00
-3.333333333335000e-01 5.000000000000000e-01 1.500000000000000e+00
3.333333333335000e-01 5.000000000000000e-01 1.500000000000000e+00
6.938893903907228e-17 4.000000000000000e-01 1.500000000000000e+00
5.551115123125783e-17 6.000000000000000e-01 1.500000000000000e+00
5.204170427930421e-17 4.999999999999999e-01 1.000000000000000e+00
5.204170427930421e-17 5.000000000000000e-01 2.000000000000000e+00
5.290906601729262e-17 5.000000000000001e-01 1.500000000000000e+00
3.333333333335000e-01 4.000000000000000e-01 1.000000000000000e+00
1.000000000000000e+00 4.000000000000000e-01 1.000000000000000e+00
1.000000000000000e+00 6.000000000000000e-01 1.000000000000000e+00
3.333333333335000e-01 6.000000000000000e-01 1.000000000000000e+00
3.333333333335000e-01 4.000000000000000e-01 2.000000000000000e+00
1.000000000000000e+00 4.000000000000000e-01 2.000000000000000e+00
1.000000000000000e+00 5.999999999999999e-01 2.000000000000000e+00
3.333333333335000e-01 6.000000000000000e-01 2.000000000000000e+00
[...]
  <PointData>
        <DataArray type="Float64" Name="displacement" NumberOfComponents="3" format="ascii">
-5.257494668291618e-06 -8.441150056929100e-03 -1.959441966924645e-04
-1.787842722146645e-06 -8.472863645318542e-03 -1.943154042022729e-04
2.955741571838655e-06 -8.473788094432614e-03 2.965903704477727e-04
8.918736315181163e-06 -8.442096927308955e-03 2.953768236043247e-04
-3.924933839766173e-06 -1.103197122501787e-02 -2.149755853286678e-04
-1.347519739379879e-06 -1.105562460702724e-02 -2.132979373634998e-04
2.189768526248138e-06 -1.105664090582205e-02 3.191507244691193e-04
6.658750004586261e-06 -1.103300740941811e-02 3.179165477951066e-04
-3.516802644324363e-06 -8.460933465226920e-03 -1.948750234099865e-04
5.853451737093924e-07 -8.472968095761814e-03 5.108857235775498e-05
5.952810279439902e-06 -8.461879467840975e-03 2.961682474825351e-04
1.821484781644955e-06 -8.441264869857367e-03 4.981962813363365e-05
-2.633659083824660e-06 -1.104672755849054e-02 -2.138606994186889e-04
4.216839681437753e-07 -1.105586804870725e-02 5.288971225832112e-05
4.432048340393658e-06 -1.104775363520996e-02 3.187211654140873e-04
1.359016416454545e-06 -1.103222946899149e-02 5.159047366032732e-05
-4.640057952061095e-06 -9.710481798911676e-03 -2.060600784609687e-04
-1.571864005036845e-06 -9.738214369036165e-03 -2.043070050270686e-04
2.572056962520835e-06 -9.739148168384731e-03 3.088591258543584e-04
7.773983878792104e-06 -9.711446885549804e-03 3.075988952385281e-04
1.560389609103481e-06 -9.710652881003558e-03 5.088897408333339e-05
5.008457201533152e-07 -9.738366566335456e-03 5.223076259071205e-05
-3.093176769058356e-06 -9.727794436023124e-03 -2.048413853389590e-04
5.187621403347263e-06 -9.728746996174631e-03 3.084316771025683e-04
1.217711925067082e-06 -8.461049281730840e-03 5.060505622513102e-05
8.978931392318891e-07 -1.104697612896964e-02 5.240040723635393e-05
1.046756365708903e-06 -9.727957106149756e-03 5.175155168551256e-05
-1.787842722146645e-06 -8.472863645318542e-03 -1.943154042022729e-04
1.662919347711518e-06 -8.472886382595513e-03 -1.942966962591329e-04
-3.062483981405389e-06 -8.473811940105496e-03 2.965998425420459e-04
2.955741571838655e-06 -8.473788094432614e-03 2.965903704477727e-04
-1.347519739379879e-06 -1.105562460702724e-02 -2.132979373634998e-04
1.225774409223804e-06 -1.105563142459648e-02 -2.133239442679845e-04
-2.307648759143302e-06 -1.105664597315663e-02 3.191458947165805e-04
2.189768526248138e-06 -1.105664090582205e-02 3.191507244691193e-04
-6.360526904062877e-08 -8.476871112632045e-03 -1.941583061313222e-04
-7.014315243885050e-07 -8.472991031694715e-03 5.110210349534841e-05
-5.513483823797715e-08 -8.477779890661556e-03 2.967114747257166e-04
5.853451737093924e-07 -8.472968095761814e-03 5.108857235775498e-05
-6.241038288075041e-08 -1.105861001445391e-02 -2.131610890257239e-04
-5.416632835043415e-07 -1.105587371999264e-02 5.287788303360756e-05
-5.962023966071335e-08 -1.105962106916680e-02 3.192705319175133e-04
4.216839681437753e-07 -1.105586804870725e-02 5.288971225832112e-05
-1.571864005036845e-06 -9.738214369036165e-03 -2.043070050270686e-04
1.449333583392252e-06 -9.738230849528958e-03 -2.042687891613322e-04
-2.681827392432320e-06 -9.739163726334826e-03 3.088699774021514e-04
2.572056962520835e-06 -9.739148168384731e-03 3.088591258543584e-04
5.008457201533152e-07 -9.738366566335456e-03 5.223076259071205e-05
-6.169574427411214e-07 -9.738382119952333e-03 5.225108243927650e-05
-6.230033066412230e-08 -9.741705279641286e-03 -2.042013391072192e-04
-5.649683797606571e-08 -9.742627909373625e-03 3.089742298391392e-04
-5.968085018888116e-08 -8.476966837299900e-03 5.125823521874698e-05
-6.102890377867550e-08 -1.105885174133726e-02 5.305125032461148e-05
-5.962974388833990e-08 -9.741851493592399e-03 5.237960633120800e-05
1.662919347711518e-06 -8.472886382595513e-03 -1.942966962591329e-04
5.126079749060149e-06 -8.441256554280709e-03 -1.959268099991133e-04
-9.020405086348131e-06 -8.442200236460624e-03 2.953929232340606e-04
-3.062483981405389e-06 -8.473811940105496e-03 2.965998425420459e-04
1.225774409223804e-06 -1.105563142459648e-02 -2.133239442679845e-04
3.812554400179570e-06 -1.103197928745513e-02 -2.148749680468276e-04
-6.771851956539396e-06 -1.103301821764866e-02 3.179493293592960e-04
-2.307648759143302e-06 -1.105664597315663e-02 3.191458947165805e-04
3.392543547336282e-06 -8.460988511161033e-03 -1.948472918077237e-04
-1.936073636118535e-06 -8.441370414478015e-03 4.983729234149685e-05
-6.054757012497476e-06 -8.461935102219997e-03 2.961841125078105e-04
-7.014315243885050e-07 -8.472991031694715e-03 5.110210349534841e-05
2.517330661916380e-06 -1.104673809606140e-02 -2.138680537288348e-04
-1.472012756352994e-06 -1.103223913061524e-02 5.164622713858187e-05
-4.547373756627055e-06 -1.104776267143582e-02 3.187233236144612e-04
-5.416632835043415e-07 -1.105587371999264e-02 5.287788303360756e-05
1.449333583392252e-06 -9.738230849528958e-03 -2.042687891613322e-04
4.513964662945278e-06 -9.710559220775532e-03 -2.060515175952060e-04
-7.881063663207587e-06 -9.711518295172361e-03 3.076198354170147e-04
-2.681827392432320e-06 -9.739163726334826e-03 3.088699774021514e-04
-6.169574427411214e-07 -9.738382119952333e-03 5.225108243927650e-05
-1.675796650112613e-06 -9.710727994158551e-03 5.090903514428256e-05
2.971825870229608e-06 -9.727834392105079e-03 -2.047914752903478e-04
-5.293495925844104e-06 -9.728784296017888e-03 3.084504765819312e-04
-1.330148551996162e-06 -8.461104337802129e-03 5.062638619908860e-05
-1.014048218530141e-06 -1.104698563348233e-02 5.239955907502562e-05
-1.159544152713167e-06 -9.727995326459597e-03 5.178196676145541e-05
8.918736315181163e-06 -8.442096927308955e-03 2.953768236043247e-04
2.955741571838655e-06 -8.473788094432614e-03 2.965903704477727e-04
7.697890419419415e-06 -8.477584433125351e-03 7.882776434644460e-04
2.314205388579996e-05 -8.445903319515566e-03 7.869394332511714e-04
6.658750004586261e-06 -1.103300740941811e-02 3.179165477951066e-04
2.189768526248138e-06 -1.105664090582205e-02 3.191507244691193e-04
5.727838321122548e-06 -1.105975601650770e-02 8.523370859286173e-04
1.727616539296728e-05 -1.103612789274149e-02 8.509877847506326e-04
5.952810279439902e-06 -8.461879467840975e-03 2.961682474825351e-04
5.325779108366782e-06 -8.475326065498076e-03 5.422875431294475e-04
1.543143034018850e-05 -8.465689369833461e-03 7.880199359277819e-04
1.602775949550387e-05 -8.443643865217230e-03 5.409944164125303e-04
4.432048340393658e-06 -1.104775363520996e-02 3.187211654140873e-04
3.958048466664100e-06 -1.105793846590957e-02 5.855961615866372e-04
1.150740868236432e-05 -1.105087541692567e-02 8.520722426368862e-04
1.196691647872512e-05 -1.103430642457552e-02 5.842873978878240e-04
7.773983878792104e-06 -9.711446885549804e-03 3.075988952385281e-04
2.572056962520835e-06 -9.739148168384731e-03 3.088591258543584e-04
6.715950895118009e-06 -9.742594517501205e-03 8.227853233022572e-04
2.022432784162568e-05 -9.714909429389986e-03 8.214214117302904e-04
1.399665368147582e-05 -9.712865254396560e-03 5.643497020917892e-04
4.643261446148228e-06 -9.740557907875988e-03 5.656775057596229e-04
5.187621403347263e-06 -9.728746996174631e-03 3.084316771025683e-04
1.347662529584791e-05 -9.732203457077261e-03 8.225194501112624e-04
1.069016041805881e-05 -8.463425628795717e-03 5.419335431281206e-04
7.968616770993516e-06 -1.104905506769935e-02 5.852342266893266e-04
9.330537871009385e-06 -9.730162861387287e-03 5.653154801614157e-04
2.955741571838655e-06 -8.473788094432614e-03 2.965903704477727e-04
-3.062483981405389e-06 -8.473811940105496e-03 2.965998425420459e-04
-7.785627517182947e-06 -8.477610068015399e-03 7.882804060401289e-04
7.697890419419415e-06 -8.477584433125351e-03 7.882776434644460e-04
2.189768526248138e-06 -1.105664090582205e-02 3.191507244691193e-04
-2.307648759143302e-06 -1.105664597315663e-02 3.191458947165805e-04
-5.841164621936116e-06 -1.105976082280208e-02 8.523359542170210e-04
5.727838321122548e-06 -1.105975601650770e-02 8.523370859286173e-04
-5.513483823797715e-08 -8.477779890661556e-03 2.967114747257166e-04
-5.422971490087437e-06 -8.475350991116258e-03 5.422935877629696e-04
-4.548811890512281e-08 -8.481565626737311e-03 7.882014890917123e-04
5.325779108366782e-06 -8.475326065498076e-03 5.422875431294475e-04
-5.962023966071335e-08 -1.105962106916680e-02 3.192705319175133e-04
-4.073657408388690e-06 -1.105794330159193e-02 5.855939615285223e-04
-5.690100792271093e-08 -1.106273078672178e-02 8.522643209979532e-04
3.958048466664100e-06 -1.105793846590957e-02 5.855961615866372e-04
2.572056962520835e-06 -9.739148168384731e-03 3.088591258543584e-04
-2.681827392432320e-06 -9.739163726334826e-03 3.088699774021514e-04
-6.813409798935124e-06 -9.742610775983268e-03 8.227876574859248e-04
6.715950895118009e-06 -9.742594517501205e-03 8.227853233022572e-04
4.643261446148228e-06 -9.740557907875988e-03 5.656775057596229e-04
-4.746802699793078e-06 -9.740573875927968e-03 5.656836007450992e-04
-5.649683797606571e-08 -9.742627909373625e-03 3.089742298391392e-04
-4.996944249826419e-08 -9.746068370517861e-03 8.227108021461775e-04
-5.029475415452244e-08 -8.479312183534770e-03 5.423197726099253e-04
-5.822930341325973e-08 -1.106091506270686e-02 5.856303555447160e-04
-5.318295636635512e-08 -9.744033783007830e-03 5.657091041872406e-04
-3.062483981405389e-06 -8.473811940105496e-03 2.965998425420459e-04
-9.020405086348131e-06 -8.442200236460624e-03 2.953929232340606e-04
-2.322250398288206e-05 -8.446002725982830e-03 7.869489285793822e-04
-7.785627517182947e-06 -8.477610068015399e-03 7.882804060401289e-04
-2.307648759143302e-06 -1.105664597315663e-02 3.191458947165805e-04
-6.771851956539396e-06 -1.103301821764866e-02 3.179493293592960e-04
-1.738845372714689e-05 -1.103614007956688e-02 8.510046377658807e-04
-5.841164621936116e-06 -1.105976082280208e-02 8.523359542170210e-04
-6.054757012497476e-06 -8.461935102219997e-03 2.961841125078105e-04
-1.611864005185914e-05 -8.443744760278810e-03 5.410076221546614e-04
-1.551410654773496e-05 -8.465746265062836e-03 7.880257629794381e-04
-5.422971490087437e-06 -8.475350991116258e-03 5.422935877629696e-04
-4.547373756627055e-06 -1.104776267143582e-02 3.187233236144612e-04
-1.207974001019793e-05 -1.103431803761326e-02 5.843101843301255e-04
-1.161999977648755e-05 -1.105088447150000e-02 8.520750412512031e-04
-4.073657408388690e-06 -1.105794330159193e-02 5.855939615285223e-04
-2.681827392432320e-06 -9.739163726334826e-03 3.088699774021514e-04
-7.881063663207587e-06 -9.711518295172361e-03 3.076198354170147e-04
-2.031786708914803e-05 -9.714974986220537e-03 8.214340445536975e-04
-6.813409798935124e-06 -9.742610775983268e-03 8.227876574859248e-04
-4.746802699793078e-06 -9.740573875927968e-03 5.656836007450992e-04
-1.409677445124945e-05 -9.712933000349006e-03 5.643663497208625e-04
-5.293495925844104e-06 -9.728784296017888e-03 3.084504765819312e-04
-1.357062430441193e-05 -9.732240169387478e-03 8.225255260466988e-04
-1.078237771684972e-05 -8.463482009583835e-03 5.419444003555557e-04
-8.082679695053235e-06 -1.104906401556175e-02 5.852371732272583e-04
-9.430399344598569e-06 -9.730199757940374e-03 5.653272608005291e-04
2.314205388579996e-05 -8.445903319515566e-03 7.869394332511714e-04
7.697890419419415e-06 -8.477584433125351e-03 7.882776434644460e-04
1.244928474110579e-05 -8.484235457820018e-03 1.281496855094467e-03
3.738217668655429e-05 -8.452553161480910e-03 1.280827616869758e-03
1.727616539296728e-05 -1.103612789274149e-02 8.509877847506326e-04
5.727838321122548e-06 -1.105975601650770e-02 8.523370859286173e-04
9.275179081495493e-06 -1.106497945867650e-02 1.387158640202296e-03
2.788330348576626e-05 -1.104136797235644e-02 1.386483283228769e-03
1.543143034018850e-05 -8.465689369833461e-03 7.880199359277819e-04
1.007231309899845e-05 -8.480556472253108e-03 1.034650728452782e-03
2.492654873594179e-05 -8.472349419381936e-03 1.281641361619923e-03
3.026054958362993e-05 -8.448873636253584e-03 1.033465843582747e-03
1.150740868236432e-05 -1.105087541692567e-02 8.520722426368862e-04
7.499945916955632e-06 -1.106210064997663e-02 1.119486808474142e-03
1.859221356120709e-05 -1.105610311676614e-02 1.387296897913272e-03
2.258284498331393e-05 -1.103847925998036e-02 1.118294236994094e-03
2.022432784162568e-05 -9.714909429389986e-03 8.214214117302904e-04
6.715950895118009e-06 -9.742594517501205e-03 8.227853233022572e-04
1.086761380579054e-05 -9.748563153801446e-03 1.338297519709378e-03
3.267759059025021e-05 -9.720892260870230e-03 1.337617300331887e-03
2.645273169822327e-05 -9.717583676293426e-03 1.079086464396250e-03
8.790582588606626e-06 -9.745261698922369e-03 1.080289640584697e-03
1.347662529584791e-05 -9.732203457077261e-03 8.225194501112624e-04
2.177678419768015e-05 -9.738174798731401e-03 1.338437821428496e-03
2.017682484606936e-05 -8.468665647760203e-03 1.034548763039167e-03
1.504856172795316e-05 -1.105322224568318e-02 1.119378653097843e-03
1.762550147301934e-05 -9.734872772955117e-03 1.080181069638244e-03
7.697890419419415e-06 -8.477584433125351e-03 7.882776434644460e-04
-7.785627517182947e-06 -8.477610068015399e-03 7.882804060401289e-04
-1.251899161496303e-05 -8.484262002215266e-03 1.281493274631164e-03
1.244928474110579e-05 -8.484235457820018e-03 1.281496855094467e-03
5.727838321122548e-06 -1.105975601650770e-02 8.523370859286173e-04
-5.841164621936116e-06 -1.105976082280208e-02 8.523359542170210e-04
-9.384635234816558e-06 -1.106498468209411e-02 1.387156864016283e-03
9.275179081495493e-06 -1.106497945867650e-02 1.387158640202296e-03
-4.548811890512281e-08 -8.481565626737311e-03 7.882014890917123e-04
-1.015083868477909e-05 -8.480582596487034e-03 1.034650300590526e-03
-3.682535638528636e-08 -8.488207558272134e-03 1.281184143897008e-03
1.007231309899845e-05 -8.480556472253108e-03 1.034650728452782e-03
-5.690100792271093e-08 -1.106273078672178e-02 8.522643209979532e-04
-7.611160523005450e-06 -1.106210559642388e-02 1.119485659480225e-03
-5.477787622642195e-08 -1.106795423486124e-02 1.386851099201435e-03
7.499945916955632e-06 -1.106210064997663e-02 1.119486808474142e-03
6.715950895118009e-06 -9.742594517501205e-03 8.227853233022572e-04
-6.813409798935124e-06 -9.742610775983268e-03 8.227876574859248e-04
-1.095353447316382e-05 -9.748580123529011e-03 1.338294421907498e-03
1.086761380579054e-05 -9.748563153801446e-03 1.338297519709378e-03
8.790582588606626e-06 -9.745261698922369e-03 1.080289640584697e-03
-8.882152465008648e-06 -9.745278250512896e-03 1.080288985311201e-03
-4.996944249826419e-08 -9.746068370517861e-03 8.227108021461775e-04
-4.434945972275219e-08 -9.752038028070578e-03 1.337986388695417e-03
-4.092747285897783e-08 -8.484533118804614e-03 1.034456365683324e-03
-5.572173744259044e-08 -1.106507494338282e-02 1.119296533731951e-03
-4.698278180574561e-08 -9.748735257130017e-03 1.080097253665665e-03
-7.785627517182947e-06 -8.477610068015399e-03 7.882804060401289e-04
-2.322250398288206e-05 -8.446002725982830e-03 7.869489285793822e-04
-3.743911272574291e-05 -8.452651912868106e-03 1.280823565442491e-03
-1.251899161496303e-05 -8.484262002215266e-03 1.281493274631164e-03
-5.841164621936116e-06 -1.105976082280208e-02 8.523359542170210e-04
-1.738845372714689e-05 -1.103614007956688e-02 8.510046377658807e-04
-2.799416237136505e-05 -1.104138123795114e-02 1.386492081003211e-03
-9.384635234816558e-06 -1.106498468209411e-02 1.387156864016283e-03
-1.551410654773496e-05 -8.465746265062836e-03 7.880257629794381e-04
-3.032999537548671e-05 -8.448972366027620e-03 1.033469892883550e-03
-2.498911906221854e-05 -8.472407287722795e-03 1.281635873183978e-03
-1.015083868477909e-05 -8.480582596487034e-03 1.034650300590526e-03
-1.161999977648755e-05 -1.105088447150000e-02 8.520750412512031e-04
-2.269444416249852e-05 -1.103849194563702e-02 1.118307124909323e-03
-1.870192079846581e-05 -1.105611296243683e-02 1.387296877124367e-03
-7.611160523005450e-06 -1.106210559642388e-02 1.119485659480225e-03
-6.813409798935124e-06 -9.742610775983268e-03 8.227876574859248e-04
-2.031786708914803e-05 -9.714974986220537e-03 8.214340445536975e-04
-3.275579542617907e-05 -9.720956967544716e-03 1.337617462404069e-03
-1.095353447316382e-05 -9.748580123529011e-03 1.338294421907498e-03
-8.882152465008648e-06 -9.745278250512896e-03 1.080288985311201e-03
-2.653924095481925e-05 -9.717648294661069e-03 1.079094041564954e-03
-1.357062430441193e-05 -9.732240169387478e-03 8.225255260466988e-04
-2.185799765512011e-05 -9.738212187559478e-03 1.338433989694192e-03
-2.024975112343172e-05 -8.468722985496120e-03 1.034549240536548e-03
-1.515964360845131e-05 -1.105323160015641e-02 1.119380438834253e-03
-1.771341050726038e-05 -9.734909617035188e-03 1.080182144838550e-03
-3.924933839766173e-06 -1.103197122501787e-02 -2.149755853286678e-04
-1.347519739379879e-06 -1.105562460702724e-02 -2.132979373634998e-04
2.189768526248138e-06 -1.105664090582205e-02 3.191507244691193e-04
6.658750004586261e-06 -1.103300740941811e-02 3.179165477951066e-04
-2.505126414154314e-06 -1.379987268958277e-02 -2.290728223952683e-04
-9.022218782300536e-07 -1.381572331049498e-02 -2.276115591836040e-04
1.475648312923956e-06 -1.381660519781343e-02 3.340776006957488e-04
4.531448908384487e-06 -1.380075287705673e-02 3.328645114614424e-04
-2.633659083824660e-06 -1.104672755849054e-02 -2.138606994186889e-04
4.216839681437753e-07 -1.105586804870725e-02 5.288971225832112e-05
4.432048340393658e-06 -1.104775363520996e-02 3.187211654140873e-04
1.359016416454545e-06 -1.103222946899149e-02 5.159047366032732e-05
-1.717953845440642e-06 -1.380974098314913e-02 -2.282099716643262e-04
2.881776020129743e-07 -1.381598494227971e-02 5.319729857538863e-05
3.011582756697309e-06 -1.381062977724508e-02 3.336326338802159e-04
1.010298570487694e-06 -1.380013238609215e-02 5.197355218263074e-05
-3.187998078199646e-06 -1.239773072524310e-02 -2.226575543039662e-04
-1.121931754127147e-06 -1.241736928045808e-02 -2.211216418646504e-04
1.820443298042024e-06 -1.241841151340986e-02 3.275339536352010e-04
5.576687433978700e-06 -1.239877667966879e-02 3.263362602205736e-04
1.186080853611499e-06 -1.239804063647105e-02 5.194503148622369e-05
3.500609259929394e-07 -1.241767376623580e-02 5.317527353005554e-05
-2.166000979119884e-06 -1.240996551380670e-02 -2.217209125576526e-04
3.701549366277527e-06 -1.241101076791183e-02 3.271002913592506e-04
8.978931392318891e-07 -1.104697612896964e-02 5.240040723635393e-05
6.478005125929354e-07 -1.381000526256638e-02 5.268749715221034e-05
7.664614525539354e-07 -1.241027072337901e-02 5.267219751335367e-05
-1.347519739379879e-06 -1.105562460702724e-02 -2.132979373634998e-04
1.225774409223804e-06 -1.105563142459648e-02 -2.133239442679845e-04
-2.307648759143302e-06 -1.105664597315663e-02 3.191458947165805e-04
2.189768526248138e-06 -1.105664090582205e-02 3.191507244691193e-04
-9.022218782300536e-07 -1.381572331049498e-02 -2.276115591836040e-04
7.532451248853312e-07 -1.381573722376255e-02 -2.276377869183991e-04
-1.617449114638530e-06 -1.381661958891061e-02 3.340706824533295e-04
1.475648312923956e-06 -1.381660519781343e-02 3.340776006957488e-04
-6.241038288075041e-08 -1.105861001445391e-02 -2.131610890257239e-04
-5.416632835043415e-07 -1.105587371999264e-02 5.287788303360756e-05
-5.962023966071335e-08 -1.105962106916680e-02 3.192705319175133e-04
4.216839681437753e-07 -1.105586804870725e-02 5.288971225832112e-05
-7.334929422168414e-08 -1.381774646092966e-02 -2.273850194394967e-04
-4.336714526558686e-07 -1.381599946000243e-02 5.318232244394875e-05
-6.961033887488573e-08 -1.381862113596689e-02 3.342175656421003e-04
2.881776020129743e-07 -1.381598494227971e-02 5.319729857538863e-05
-1.121931754127147e-06 -1.241736928045808e-02 -2.211216418646504e-04
9.933691485926666e-07 -1.241737218895527e-02 -2.212007480350276e-04
-1.949629020293613e-06 -1.241841311565414e-02 3.275164959215633e-04
1.820443298042024e-06 -1.241841151340986e-02 3.275339536352010e-04
3.500609259929394e-07 -1.241767376623580e-02 5.317527353005554e-05
-4.793132267764844e-07 -1.241767608296093e-02 5.313684859595915e-05
-6.555388447258154e-08 -1.241986413543001e-02 -2.209261258240715e-04