<?xml version="1.0" ?> 
<!-- 
# vtk DataFile Version 3.0
-->
<VTKFile type="UnstructuredGrid" version="0.1" compressor="vtkZLibDataCompressor" byte_order="LittleEndian">
  <UnstructuredGrid>
    <FieldData>
      <DataArray type="Float64" Name="TIME" NumberOfTuples="1" format="ascii">
1.000000000000000e-01 
      </DataArray>
    </FieldData>

    <Piece NumberOfPoints="889" NumberOfCells="47" >
      <Points>
        <DataArray type="Float64" NumberOfComponents="3" format="ascii">
-1.000000000000000e+00 2.000000000000000e-01 -5.000000000000000e+00
-3.333333333335000e-01 2.000000000000000e-01 -5.000000000000000e+00
-3.333333333335000e-01 4.000000000000000e-01 -5.000000000000000e+00
-1.000000000000000e+00 4.000000000000000e-01 -5.000000000000000e+00
-1.000000000000000e+00 2.000000000000000e-01 -4.000000000000000e+00
-3.333333333335000e-01 2.000000000000000e-01 -4.000000000000000e+00
-3.333333333335000e-01 4.000000000000000e-01 -4.000000000000000e+00
-1.000000000000000e+00 4.000000000000000e-01 -4.000000000000000e+00
-6.666666666668750e-01 2.000000000000000e-01 -5.000000000000000e+00
-3.333333333335000e-01 3.000000000000000e-01 -5.000000000000000e+00
-6.666666666668750e-01 4.000000000000000e-01 -5.000000000000000e+00
-1.000000000000000e+00 3.000000000000000e-01 -5.000000000000000e+00
-6.666666666668750e-01 2.000000000000000e-01 -4.000000000000000e+00
-3.333333333335000e-01 3.000000000000000e-01 -4.000000000000000e+00
-6.666666666668750e-01 4.000000000000000e-01 -4.000000000000000e+00
-1.000000000000000e+00 3.000000000000000e-01 -4.000000000000000e+00
-1.000000000000000e+00 2.000000000000000e-01 -4.500000000000000e+00
-3.333333333335000e-01 2.000000000000000e-01 -4.500000000000000e+00
-3.333333333335000e-01 4.000000000000000e-01 -4.500000000000000e+00
-1.000000000000000e+00 4.000000000000000e-01 -4.500000000000000e+00
-1.000000000000000e+00 3.000000000000000e-01 -4.500000000000000e+00
-3.333333333335000e-01 3.000000000000000e-01 -4.500000000000000e+00
-6.666666666668749e-01 2.000000000000000e-01 -4.500000000000000e+00
-6.666666666668750e-01 4.000000000000000e-01 -4.500000000000000e+00
-6.666666666668749e-01 3.000000000000000e-01 -5.000000000000000e+00
-6.666666666668750e-01 3.000000000000000e-01 -4.000000000000000e+00
-6.666666666668750e-01 3.000000000000000e-01 -4.500000000000000e+00
-3.333333333335000e-01 2.000000000000000e-01 -5.000000000000000e+00
3.333333333335000e-01 2.000000000000000e-01 -5.000000000000000e+00
3.333333333335000e-01 4.000000000000000e-01 -5.000000000000000e+00
-3.333333333335000e-01 4.000000000000000e-01 -5.000000000000000e+00
-3.333333333335000e-01 2.000000000000000e-01 -4.000000000000000e+00
3.333333333335000e-01 2.000000000000000e-01 -4.000000000000000e+00
3.333333333335000e-01 4.000000000000000e-01 -4.000000000000000e+00
-3.333333333335000e-01 4.000000000000000e-01 -4.000000000000000e+00
5.551115123125783e-17 2.000000000000000e-01 -5.000000000000000e+00
3.333333333335000e-01 3.000000000000000e-01 -5.000000000000000e+00
5.551115123125783e-17 4.000000000000000e-01 -5.000000000000000e+00
-3.333333333335000e-01 3.000000000000000e-01 -5.000000000000000e+00
5.551115123125783e-17 2.000000000000000e-01 -4.000000000000001e+00
3.333333333335000e-01 3.000000000000000e-01 -4.000000000000000e+00
6.938893903907228e-17 4.000000000000000e-01 -4.000000000000000e+00
-3.333333333335000e-01 3.000000000000000e-01 -4.000000000000000e+00
-3.333333333335000e-01 2.000000000000000e-01 -4.500000000000000e+00
3.333333333335000e-01 2.000000000000000e-01 -4.500000000000000e+00
3.333333333335000e-01 4.000000000000000e-01 -4.500000000000000e+00
-3.333333333335000e-01 4.000000000000000e-01 -4.500000000000000e+00
-3.333333333335000e-01 3.000000000000000e-01 -4.500000000000000e+00
3.333333333334999e-01 3.000000000000000e-01 -4.500000000000000e+00
4.857225732735060e-17 2.000000000000000e-01 -4.500000000000001e+00
5.377642775528102e-17 3.999999999999999e-01 -4.500000000000000e+00
4.857225732735060e-17 3.000000000000000e-01 -5.000000000000001e+00
5.637851296924623e-17 3.000000000000000e-01 -4.000000000000000e+00
4.531965080989409e-17 3.000000000000000e-01 -4.500000000000000e+00
3.333333333335000e-01 2.000000000000000e-01 -5.000000000000000e+00
1.000000000000000e+00 2.000000000000000e-01 -5.000000000000000e+00
1.000000000000000e+00 4.000000000000000e-01 -5.000000000000000e+00
3.333333333335000e-01 4.000000000000000e-01 -5.000000000000000e+00
3.333333333335000e-01 2.000000000000000e-01 -4.000000000000000e+00
1.000000000000000e+00 2.000000000000000e-01 -4.000000000000000e+00
1.000000000000000e+00 4.000000000000000e-01 -4.000000000000000e+00
3.333333333335000e-01 4.000000000000000e-01 -4.000000000000000e+00
6.666666666668750e-01 2.000000000000000e-01 -5.000000000000000e+00
1.000000000000000e+00 3.000000000000000e-01 -5.000000000000000e+00
6.666666666668750e-01 4.000000000000000e-01 -5.000000000000000e+00
3.333333333335000e-01 3.000000000000000e-01 -5.000000000000000e+00
6.666666666668750e-01 2.000000000000000e-01 -4.000000000000000e+00
1.000000000000000e+00 3.000000000000000e-01 -4.000000000000000e+00
6.666666666668750e-01 4.000000000000000e-01 -4.000000000000000e+00
3.333333333335000e-01 3.000000000000000e-01 -4.000000000000000e+00
3.333333333335000e-01 2.000000000000000e-01 -4.500000000000000e+00
1.000000000000000e+00 2.000000000000000e-01 -4.500000000000000e+00
1.000000000000000e+00 4.000000000000000e-01 -4.500000000000000e+00
3.333333333335000e-01 4.000000000000000e-01 -4.500000000000000e+00
3.333333333334999e-01 3.000000000000000e-01 -4.500000000000000e+00
1.000000000000000e+00 3.000000000000000e-01 -4.500000000000000e+00
6.666666666668749e-01 2.000000000000000e-01 -4.500000000000000e+00
6.666666666668751e-01 4.000000000000001e-01 -4.500000000000000e+00
6.666666666668749e-01 3.000000000000000e-01 -5.000000000000000e+00
6.666666666668749e-01 2.999999999999999e-01 -4.000000000000000e+00
6.666666666668749e-01 3.000000000000000e-01 -4.500000000000000e+00
-1.000000000000000e+00 4.000000000000000e-01 -5.000000000000000e+00
-3.333333333335000e-01 4.000000000000000e-01 -5.000000000000000e+00
-3.333333333335000e-01 5.999999999999999e-01 -5.000000000000000e+00
-1.000000000000000e+00 5.999999999999999e-01 -5.000000000000000e+00
-1.000000000000000e+00 4.000000000000000e-01 -4.000000000000000e+00
-3.333333333335000e-01 4.000000000000000e-01 -4.000000000000000e+00
-3.333333333335000e-01 6.000000000000000e-01 -4.000000000000000e+00
-1.000000000000000e+00 5.999999999999999e-01 -4.000000000000000e+00
-6.666666666668750e-01 4.000000000000000e-01 -5.000000000000000e+00
-3.333333333335001e-01 5.000000000000001e-01 -5.000000000000000e+00
-6.666666666668750e-01 5.999999999999999e-01 -5.000000000000000e+00
-1.000000000000000e+00 5.000000000000001e-01 -5.000000000000000e+00
-6.666666666668750e-01 4.000000000000000e-01 -4.000000000000000e+00
-3.333333333335000e-01 5.000000000000001e-01 -4.000000000000000e+00
-6.666666666668750e-01 5.999999999999999e-01 -4.000000000000000e+00
-1.000000000000000e+00 5.000000000000001e-01 -4.000000000000001e+00
-1.000000000000000e+00 4.000000000000000e-01 -4.500000000000000e+00
-3.333333333335000e-01 4.000000000000000e-01 -4.500000000000000e+00
-3.333333333335000e-01 5.999999999999999e-01 -4.500000000000000e+00
-1.000000000000000e+00 5.999999999999999e-01 -4.500000000000000e+00
-1.000000000000000e+00 5.000000000000001e-01 -4.500000000000001e+00
-3.333333333335000e-01 5.000000000000000e-01 -4.500000000000000e+00
-6.666666666668750e-01 4.000000000000000e-01 -4.500000000000000e+00
-6.666666666668750e-01 6.000000000000000e-01 -4.500000000000000e+00
-6.666666666668751e-01 5.000000000000001e-01 -5.000000000000001e+00
-6.666666666668750e-01 5.000000000000000e-01 -4.000000000000000e+00
-6.666666666668750e-01 5.000000000000000e-01 -4.500000000000000e+00
-3.333333333335000e-01 4.000000000000000e-01 -5.000000000000000e+00
3.333333333335000e-01 4.000000000000000e-01 -5.000000000000000e+00
3.333333333335000e-01 5.999999999999999e-01 -5.000000000000000e+00
-3.333333333335000e-01 5.999999999999999e-01 -5.000000000000000e+00
-3.333333333335000e-01 4.000000000000000e-01 -4.000000000000000e+00
3.333333333335000e-01 4.000000000000000e-01 -4.000000000000000e+00
3.333333333335000e-01 6.000000000000000e-01 -4.000000000000000e+00
-3.333333333335000e-01 6.000000000000000e-01 -4.000000000000000e+00
5.551115123125783e-17 4.000000000000000e-01 -5.000000000000000e+00
3.333333333335000e-01 5.000000000000000e-01 -5.000000000000000e+00
4.857225732735060e-17 6.000000000000000e-01 -5.000000000000000e+00
-3.333333333335001e-01 5.000000000000001e-01 -5.000000000000000e+00
6.938893903907228e-17 4.000000000000000e-01 -4.000000000000000e+00
3.333333333335000e-01 5.000000000000001e-01 -4.000000000000000e+00
4.857225732735060e-17 6.000000000000000e-01 -4.000000000000000e+00
-3.333333333335000e-01 5.000000000000001e-01 -4.000000000000000e+00
-3.333333333335000e-01 4.000000000000000e-01 -4.500000000000000e+00
3.333333333335000e-01 4.000000000000000e-01 -4.500000000000000e+00
3.333333333335000e-01 5.999999999999999e-01 -4.500000000000000e+00
-3.333333333335000e-01 5.999999999999999e-01 -4.500000000000000e+00
-3.333333333335000e-01 5.000000000000000e-01 -4.500000000000000e+00
3.333333333334999e-01 5.000000000000000e-01 -4.500000000000000e+00
5.377642775528102e-17 3.999999999999999e-01 -4.500000000000000e+00
4.423544863740858e-17 6.000000000000001e-01 -4.500000000000000e+00
4.857225732735060e-17 4.999999999999999e-01 -5.000000000000000e+00
5.204170427930421e-17 5.000000000000000e-01 -4.000000000000000e+00
4.423544863740858e-17 5.000000000000000e-01 -4.500000000000000e+00
3.333333333335000e-01 4.000000000000000e-01 -5.000000000000000e+00
1.000000000000000e+00 4.000000000000000e-01 -5.000000000000000e+00
1.000000000000000e+00 5.999999999999999e-01 -5.000000000000000e+00
3.333333333335000e-01 5.999999999999999e-01 -5.000000000000000e+00
3.333333333335000e-01 4.000000000000000e-01 -4.000000000000000e+00
[...]
  <PointData>
        <DataArray type="Float64" Name="displacement" NumberOfComponents="3" format="ascii">
0.000000000000000e+00 0.000000000000000e+00 0.000000000000000e+00
0.000000000000000e+00 0.000000000000000e+00 0.000000000000000e+00
0.000000000000000e+00 0.000000000000000e+00 0.000000000000000e+00
0.000000000000000e+00 0.000000000000000e+00 0.000000000000000e+00
-8.602587408654949e-06 -2.375078648803668e-04 -3.956368395470532e-05
-1.807335381131364e-06 -2.945596164061010e-04 -4.491431339906267e-05
6.683747881294925e-06 -2.950059008686414e-04 6.136685184552094e-05
2.064809134466567e-05 -2.381513724744725e-04 6.519989781702012e-05
0.000000000000000e+00 0.000000000000000e+00 0.000000000000000e+00
0.000000000000000e+00 0.000000000000000e+00 0.000000000000000e+00
0.000000000000000e+00 0.000000000000000e+00 0.000000000000000e+00
0.000000000000000e+00 0.000000000000000e+00 0.000000000000000e+00
-4.408232981180369e-06 -2.745666628442379e-04 -4.242599770830587e-05
2.397320278057993e-06 -2.937895531668440e-04 8.398738577083073e-06
1.351766500885870e-05 -2.750975275795495e-04 6.273632994545655e-05
6.006697787463022e-06 -2.369075817619863e-04 1.241576659770848e-05
-5.602446944408753e-06 -4.250693134092389e-05 -1.675669092261450e-05
-7.097860836535038e-07 -8.071466903930406e-05 -2.502636939451695e-05
4.832651224335534e-06 -8.063811059186124e-05 2.772237709273978e-05
1.631962396077725e-05 -4.282214176096628e-05 3.348406107108577e-05
5.297462487848297e-06 -4.186189128881846e-05 7.728901071058147e-06
1.983337225367616e-06 -7.973874304466238e-05 1.705418315997991e-06
-2.300051040947734e-06 -6.832612231986170e-05 -2.161979359971187e-05
1.012052255264278e-05 -6.844543160055204e-05 2.946226062900955e-05
0.000000000000000e+00 0.000000000000000e+00 0.000000000000000e+00
4.500336522102791e-06 -2.738762480697092e-04 1.019370293487845e-05
3.799833733894230e-06 -6.751342907021142e-05 4.058373763745263e-06
0.000000000000000e+00 0.000000000000000e+00 0.000000000000000e+00
0.000000000000000e+00 0.000000000000000e+00 0.000000000000000e+00
0.000000000000000e+00 0.000000000000000e+00 0.000000000000000e+00
0.000000000000000e+00 0.000000000000000e+00 0.000000000000000e+00
-1.807335381131364e-06 -2.945596164061010e-04 -4.491431339906267e-05
1.787505529154487e-06 -2.945741652844258e-04 -4.493389407095908e-05
-6.689232022615432e-06 -2.950262891682827e-04 6.136605942967527e-05
6.683747881294925e-06 -2.950059008686414e-04 6.136685184552094e-05
0.000000000000000e+00 0.000000000000000e+00 0.000000000000000e+00
0.000000000000000e+00 0.000000000000000e+00 0.000000000000000e+00
0.000000000000000e+00 0.000000000000000e+00 0.000000000000000e+00
0.000000000000000e+00 0.000000000000000e+00 0.000000000000000e+00
-6.540560391791249e-09 -3.002932693061118e-04 -4.606986689670425e-05
-2.409618013629497e-06 -2.938075753463655e-04 8.388723862286843e-06
-2.328356403752562e-09 -3.007057391341014e-04 6.095543713449871e-05
2.397320278057993e-06 -2.937895531668440e-04 8.398738577083073e-06
-7.097860836535038e-07 -8.071466903930406e-05 -2.502636939451695e-05
7.307722717484683e-07 -8.065423645392858e-05 -2.504962214998372e-05
-4.829181524460162e-06 -8.058713286481769e-05 2.771261804299187e-05
4.832651224335534e-06 -8.063811059186124e-05 2.772237709273978e-05
1.983337225367616e-06 -7.973874304466238e-05 1.705418315997991e-06
-1.971496133610356e-06 -7.968318983397173e-05 1.687552382298868e-06
1.745324730240752e-08 -8.353617318780753e-05 -2.637133876021311e-05
1.064892939787841e-09 -8.336405294368581e-05 2.742047478861952e-05
0.000000000000000e+00 0.000000000000000e+00 0.000000000000000e+00
-5.086161557420523e-09 -2.994868709576447e-04 7.605527545744991e-06
6.663692716679097e-09 -8.248095577747971e-05 8.538670735909773e-07
0.000000000000000e+00 0.000000000000000e+00 0.000000000000000e+00
0.000000000000000e+00 0.000000000000000e+00 0.000000000000000e+00
0.000000000000000e+00 0.000000000000000e+00 0.000000000000000e+00
0.000000000000000e+00 0.000000000000000e+00 0.000000000000000e+00
1.787505529154487e-06 -2.945741652844258e-04 -4.493389407095908e-05
8.618361401056946e-06 -2.375213319308776e-04 -3.966082141246449e-05
-2.064982388221511e-05 -2.381959854889241e-04 6.519730700007512e-05
-6.689232022615432e-06 -2.950262891682827e-04 6.136605942967527e-05
0.000000000000000e+00 0.000000000000000e+00 0.000000000000000e+00
0.000000000000000e+00 0.000000000000000e+00 0.000000000000000e+00
0.000000000000000e+00 0.000000000000000e+00 0.000000000000000e+00
0.000000000000000e+00 0.000000000000000e+00 0.000000000000000e+00
4.390555359104918e-06 -2.745882157047717e-04 -4.247475791261619e-05
-6.006105443769230e-06 -2.369399185593562e-04 1.237872607854678e-05
-1.352303867774944e-05 -2.751341662077141e-04 6.273469172141322e-05
-2.409618013629497e-06 -2.938075753463655e-04 8.388723862286843e-06
7.307722717484683e-07 -8.065423645392858e-05 -2.504962214998372e-05
5.762331967372530e-06 -4.222163728316537e-05 -1.694017411863924e-05
-1.628012113148704e-05 -4.262158240020544e-05 3.344769300579756e-05
-4.829181524460162e-06 -8.058713286481769e-05 2.771261804299187e-05
-1.971496133610356e-06 -7.968318983397173e-05 1.687552382298868e-06
-5.216172493854079e-06 -4.162650394919010e-05 7.640176350976422e-06
2.341841631250051e-06 -6.817925807370275e-05 -2.169473034305152e-05
-1.010670465641791e-05 -6.833156960155743e-05 2.944096980050261e-05
0.000000000000000e+00 0.000000000000000e+00 0.000000000000000e+00
-4.511537150314635e-06 -2.739068599934537e-04 1.017192441159274e-05
-3.772116710253829e-06 -6.738514072194104e-05 4.013860166600927e-06
0.000000000000000e+00 0.000000000000000e+00 0.000000000000000e+00
0.000000000000000e+00 0.000000000000000e+00 0.000000000000000e+00
0.000000000000000e+00 0.000000000000000e+00 0.000000000000000e+00
0.000000000000000e+00 0.000000000000000e+00 0.000000000000000e+00
2.064809134466567e-05 -2.381513724744725e-04 6.519989781702012e-05
6.683747881294925e-06 -2.950059008686414e-04 6.136685184552094e-05
1.528605701333527e-05 -3.035070749159543e-04 1.678944401150044e-04
4.982338414605764e-05 -2.461403684085871e-04 1.722290182051102e-04
0.000000000000000e+00 0.000000000000000e+00 0.000000000000000e+00
0.000000000000000e+00 0.000000000000000e+00 0.000000000000000e+00
0.000000000000000e+00 0.000000000000000e+00 0.000000000000000e+00
0.000000000000000e+00 0.000000000000000e+00 0.000000000000000e+00
1.351766500885870e-05 -2.750975275795495e-04 6.273632994545655e-05
1.099798195193537e-05 -2.982359709666320e-04 1.143965708701838e-04
3.156087878660964e-05 -2.833802787775909e-04 1.685297424972993e-04
3.527063841388617e-05 -2.412315352719610e-04 1.185504136904229e-04
1.631962396077725e-05 -4.282214176096628e-05 3.348406107108577e-05
4.832651224335534e-06 -8.063811059186124e-05 2.772237709273978e-05
1.064166932099519e-05 -8.813562479635103e-05 8.008239525473543e-05
3.831494284728265e-05 -4.982217541914663e-05 8.700113081676347e-05
2.736009742903606e-05 -4.545359804264859e-05 6.005830050910777e-05
7.748610420471105e-06 -8.343099630204327e-05 5.364215378816632e-05
1.012052255264278e-05 -6.844543160055204e-05 2.946226062900955e-05
2.288306981222056e-05 -7.568129263026026e-05 8.086839096790077e-05
0.000000000000000e+00 0.000000000000000e+00 0.000000000000000e+00
2.256432244254258e-05 -2.782567787050723e-04 1.154367281805548e-04
1.652670478788816e-05 -7.115657206814713e-05 5.494716652181630e-05
0.000000000000000e+00 0.000000000000000e+00 0.000000000000000e+00
0.000000000000000e+00 0.000000000000000e+00 0.000000000000000e+00
0.000000000000000e+00 0.000000000000000e+00 0.000000000000000e+00
0.000000000000000e+00 0.000000000000000e+00 0.000000000000000e+00
6.683747881294925e-06 -2.950059008686414e-04 6.136685184552094e-05
-6.689232022615432e-06 -2.950262891682827e-04 6.136605942967527e-05
-1.527789035492045e-05 -3.035300743009938e-04 1.679109296782191e-04
1.528605701333527e-05 -3.035070749159543e-04 1.678944401150044e-04
0.000000000000000e+00 0.000000000000000e+00 0.000000000000000e+00
0.000000000000000e+00 0.000000000000000e+00 0.000000000000000e+00
0.000000000000000e+00 0.000000000000000e+00 0.000000000000000e+00
0.000000000000000e+00 0.000000000000000e+00 0.000000000000000e+00
-2.328356403752562e-09 -3.007057391341014e-04 6.095543713449871e-05
-1.099682622673514e-05 -2.982579183024135e-04 1.144046241840411e-04
4.580181177565343e-09 -3.092979442737357e-04 1.683469046460395e-04
1.099798195193537e-05 -2.982359709666320e-04 1.143965708701838e-04
4.832651224335534e-06 -8.063811059186124e-05 2.772237709273978e-05
-4.829181524460162e-06 -8.058713286481769e-05 2.771261804299187e-05
-1.065230909503963e-05 -8.809179639640184e-05 8.008948970613554e-05
1.064166932099519e-05 -8.813562479635103e-05 8.008239525473543e-05
7.748610420471105e-06 -8.343099630204327e-05 5.364215378816632e-05
-7.752660358902676e-06 -8.338401767583742e-05 5.364134157122690e-05
1.064892939787841e-09 -8.336405294368581e-05 2.742047478861952e-05
-4.907392667021318e-09 -9.100063751815346e-05 8.102785704492716e-05
0.000000000000000e+00 0.000000000000000e+00 0.000000000000000e+00
1.103532148235508e-09 -3.039695411384693e-04 1.143968875933369e-04
-1.929889648150841e-09 -8.619932631453927e-05 5.394097468051683e-05
0.000000000000000e+00 0.000000000000000e+00 0.000000000000000e+00
0.000000000000000e+00 0.000000000000000e+00 0.000000000000000e+00
0.000000000000000e+00 0.000000000000000e+00 0.000000000000000e+00
0.000000000000000e+00 0.000000000000000e+00 0.000000000000000e+00
-6.689232022615432e-06 -2.950262891682827e-04 6.136605942967527e-05
-2.064982388221511e-05 -2.381959854889241e-04 6.519730700007512e-05
-4.981583336361085e-05 -2.461980334530707e-04 1.722618774949449e-04
-1.527789035492045e-05 -3.035300743009938e-04 1.679109296782191e-04
0.000000000000000e+00 0.000000000000000e+00 0.000000000000000e+00
0.000000000000000e+00 0.000000000000000e+00 0.000000000000000e+00
0.000000000000000e+00 0.000000000000000e+00 0.000000000000000e+00
0.000000000000000e+00 0.000000000000000e+00 0.000000000000000e+00
-1.352303867774944e-05 -2.751341662077141e-04 6.273469172141322e-05
-3.526799837019192e-05 -2.412839010200170e-04 1.185674984421860e-04
-3.155385980112713e-05 -2.834234442700112e-04 1.685585692737765e-04
-1.099682622673514e-05 -2.982579183024135e-04 1.144046241840411e-04
-4.829181524460162e-06 -8.058713286481769e-05 2.771261804299187e-05
-1.628012113148704e-05 -4.262158240020544e-05 3.344769300579756e-05
-3.831773129771052e-05 -4.966164333063912e-05 8.701159687902269e-05
-1.065230909503963e-05 -8.809179639640184e-05 8.008948970613554e-05
-7.752660358902676e-06 -8.338401767583742e-05 5.364134157122690e-05
-2.734285903596098e-05 -4.527668980456919e-05 6.004921884781579e-05
-1.010670465641791e-05 -6.833156960155743e-05 2.944096980050261e-05
-2.289257174407126e-05 -7.558637410819689e-05 8.087987554771569e-05
0.000000000000000e+00 0.000000000000000e+00 0.000000000000000e+00
-2.256384697681509e-05 -2.782973043118132e-04 1.154510660108172e-04
-1.652562280257833e-05 -7.105362172586998e-05 5.494388083531902e-05
0.000000000000000e+00 0.000000000000000e+00 0.000000000000000e+00
0.000000000000000e+00 0.000000000000000e+00 0.000000000000000e+00
0.000000000000000e+00 0.000000000000000e+00 0.000000000000000e+00
0.000000000000000e+00 0.000000000000000e+00 0.000000000000000e+00
4.982338414605764e-05 -2.461403684085871e-04 1.722290182051102e-04
1.528605701333527e-05 -3.035070749159543e-04 1.678944401150044e-04
2.357382504701323e-05 -3.202532036327880e-04 2.782088957816756e-04
7.873434550382153e-05 -2.613520118455926e-04 2.794912811077373e-04
0.000000000000000e+00 0.000000000000000e+00 0.000000000000000e+00
0.000000000000000e+00 0.000000000000000e+00 0.000000000000000e+00
0.000000000000000e+00 0.000000000000000e+00 0.000000000000000e+00
0.000000000000000e+00 0.000000000000000e+00 0.000000000000000e+00
3.156087878660964e-05 -2.833802787775909e-04 1.685297424972993e-04
1.949549680014457e-05 -3.108394175326568e-04 2.223390262091219e-04
4.914465905068364e-05 -2.995841854734508e-04 2.770289870419234e-04
6.431004701732211e-05 -2.528548634209360e-04 2.259659083484318e-04
3.831494284728265e-05 -4.982217541914663e-05 8.700113081676347e-05
1.064166932099519e-05 -8.813562479635103e-05 8.008239525473543e-05
1.602769810933803e-05 -1.037394952407447e-04 1.379028864562811e-04
5.973041196479429e-05 -6.365041902852132e-05 1.404387440288338e-04
4.912482582328082e-05 -5.589780528344328e-05 1.139240969910174e-04
1.342898089444007e-05 -9.486684235063478e-05 1.078877549811921e-04
2.288306981222056e-05 -7.568129263026026e-05 8.086839096790077e-05
3.497330918480850e-05 -9.049316261975389e-05 1.361795017199555e-04
0.000000000000000e+00 0.000000000000000e+00 0.000000000000000e+00
4.044257675225747e-05 -2.904840677245640e-04 2.222992148122393e-04
2.907135786480551e-05 -8.210001543231972e-05 1.077658605172761e-04
0.000000000000000e+00 0.000000000000000e+00 0.000000000000000e+00
0.000000000000000e+00 0.000000000000000e+00 0.000000000000000e+00
0.000000000000000e+00 0.000000000000000e+00 0.000000000000000e+00
0.000000000000000e+00 0.000000000000000e+00 0.000000000000000e+00
1.528605701333527e-05 -3.035070749159543e-04 1.678944401150044e-04
-1.527789035492045e-05 -3.035300743009938e-04 1.679109296782191e-04
-2.355151332308759e-05 -3.202770713351125e-04 2.782437440303549e-04
2.357382504701323e-05 -3.202532036327880e-04 2.782088957816756e-04
0.000000000000000e+00 0.000000000000000e+00 0.000000000000000e+00
0.000000000000000e+00 0.000000000000000e+00 0.000000000000000e+00
0.000000000000000e+00 0.000000000000000e+00 0.000000000000000e+00
0.000000000000000e+00 0.000000000000000e+00 0.000000000000000e+00
4.580181177565343e-09 -3.092979442737357e-04 1.683469046460395e-04
-1.948019564207129e-05 -3.108630332749260e-04 2.223642211982952e-04
1.178656501968918e-08 -3.262028907709075e-04 2.797181129151131e-04
1.949549680014457e-05 -3.108394175326568e-04 2.223390262091219e-04
1.064166932099519e-05 -8.813562479635103e-05 8.008239525473543e-05
-1.065230909503963e-05 -8.809179639640184e-05 8.008948970613554e-05
-1.605628061824233e-05 -1.037000056771844e-04 1.379247035247585e-04
1.602769810933803e-05 -1.037394952407447e-04 1.379028864562811e-04
1.342898089444007e-05 -9.486684235063478e-05 1.078877549811921e-04
-1.344716881933238e-05 -9.482546155426586e-05 1.079022233799140e-04
-4.907392667021318e-09 -9.100063751815346e-05 8.102785704492716e-05
-1.322918416346489e-08 -1.069536864177896e-04 1.402656898528642e-04
0.000000000000000e+00 0.000000000000000e+00 0.000000000000000e+00
8.131291772097086e-09 -3.167045327483865e-04 2.232918568881253e-04
-8.472272158300352e-09 -9.788106480305975e-05 1.095223520472448e-04
0.000000000000000e+00 0.000000000000000e+00 0.000000000000000e+00
0.000000000000000e+00 0.000000000000000e+00 0.000000000000000e+00
0.000000000000000e+00 0.000000000000000e+00 0.000000000000000e+00
0.000000000000000e+00 0.000000000000000e+00 0.000000000000000e+00
-1.527789035492045e-05 -3.035300743009938e-04 1.679109296782191e-04
-4.981583336361085e-05 -2.461980334530707e-04 1.722618774949449e-04
-7.871695594091791e-05 -2.614139545562463e-04 2.795684524242224e-04
-2.355151332308759e-05 -3.202770713351125e-04 2.782437440303549e-04
0.000000000000000e+00 0.000000000000000e+00 0.000000000000000e+00
0.000000000000000e+00 0.000000000000000e+00 0.000000000000000e+00
0.000000000000000e+00 0.000000000000000e+00 0.000000000000000e+00
0.000000000000000e+00 0.000000000000000e+00 0.000000000000000e+00
-3.155385980112713e-05 -2.834234442700112e-04 1.685585692737765e-04
-6.429744663100762e-05 -2.529156341708816e-04 2.260167576563057e-04
-4.912483927312726e-05 -2.996295057790199e-04 2.770918401818939e-04
-1.948019564207129e-05 -3.108630332749260e-04 2.223642211982952e-04
-1.065230909503963e-05 -8.809179639640184e-05 8.008948970613554e-05
-3.831773129771052e-05 -4.966164333063912e-05 8.701159687902269e-05
-5.977156819326095e-05 -6.350522055086626e-05 1.404852229323476e-04
-1.605628061824233e-05 -1.037000056771844e-04 1.379247035247585e-04
-1.344716881933238e-05 -9.482546155426586e-05 1.079022233799140e-04
-4.914666024179181e-05 -5.574747592915745e-05 1.139514054552546e-04
-2.289257174407126e-05 -7.558637410819689e-05 8.087987554771569e-05
-3.500715926418077e-05 -9.040750104588973e-05 1.362183927814307e-04
0.000000000000000e+00 0.000000000000000e+00 0.000000000000000e+00
-4.042891221259479e-05 -2.905287800898872e-04 2.223434208756744e-04
-2.909170079367821e-05 -8.201070709828713e-05 1.077907731317378e-04
2.064809134466567e-05 -2.381513724744725e-04 6.519989781702012e-05
6.683747881294925e-06 -2.950059008686414e-04 6.136685184552094e-05
1.528605701333527e-05 -3.035070749159543e-04 1.678944401150044e-04
4.982338414605764e-05 -2.461403684085871e-04 1.722290182051102e-04
1.767449208611899e-05 -1.042633687042899e-03 1.249717456210003e-04
6.121733911820335e-06 -1.105184156870646e-03 1.265324754930382e-04
1.546797115028294e-05 -1.111428824336215e-03 3.343397808491525e-04
4.556080532582925e-05 -1.048861048838035e-03 3.324255491775811e-04
1.351766500885870e-05 -2.750975275795495e-04 6.273632994545655e-05
1.099798195193537e-05 -2.982359709666320e-04 1.143965708701838e-04
3.156087878660964e-05 -2.833802787775909e-04 1.685297424972993e-04
3.527063841388617e-05 -2.412315352719610e-04 1.185504136904229e-04
1.208050123207910e-05 -1.081621834696725e-03 1.261565778424420e-04
1.080061114815972e-05 -1.107638822727510e-03 2.303157538636171e-04
3.072551477036224e-05 -1.087867540822246e-03 3.340996422605602e-04
3.162077813482539e-05 -1.045104099506740e-03 2.285787821441618e-04
1.907113607775102e-05 -5.750633387114674e-04 9.555872205969447e-05
6.723404075561939e-06 -6.381667799287624e-04 9.596101954880116e-05
1.615440898657846e-05 -6.449821936616343e-04 2.553442101300593e-04
4.781033470326114e-05 -5.816036394032430e-04 2.544487837852971e-04
3.345105472549955e-05 -5.776697297419781e-04 1.749120155625671e-04
1.144851529447189e-05 -6.408326658297826e-04 1.755316409830136e-04
1.317610026866504e-05 -6.146063184429537e-04 9.618137874978579e-05
3.213962706028447e-05 -6.213560107416876e-04 2.554511333431884e-04
2.256432244254258e-05 -2.782567787050723e-04 1.154367281805548e-04
2.141097621133727e-05 -1.084077170335597e-03 2.300046202214965e-04
2.267252292876004e-05 -6.172478885733610e-04 1.757090808043900e-04
6.683747881294925e-06 -2.950059008686414e-04 6.136685184552094e-05
-6.689232022615432e-06 -2.950262891682827e-04 6.136605942967527e-05
-1.527789035492045e-05 -3.035300743009938e-04 1.679109296782191e-04
1.528605701333527e-05 -3.035070749159543e-04 1.678944401150044e-04
6.121733911820335e-06 -1.105184156870646e-03 1.265324754930382e-04
-6.156136179206742e-06 -1.105259349098983e-03 1.265539674343706e-04
-1.546323262532685e-05 -1.111502904382576e-03 3.343482854139037e-04
1.546797115028294e-05 -1.111428824336215e-03 3.343397808491525e-04
-2.328356403752562e-09 -3.007057391341014e-04 6.095543713449871e-05
-1.099682622673514e-05 -2.982579183024135e-04 1.144046241840411e-04
4.580181177565343e-09 -3.092979442737357e-04 1.683469046460395e-04
1.099798195193537e-05 -2.982359709666320e-04 1.143965708701838e-04
-1.831138762053053e-08 -1.113127659644714e-03 1.265235636609580e-04
-1.081518019807637e-05 -1.107713567526730e-03 2.303299124898758e-04
8.351301877734556e-10 -1.119366683987231e-03 3.341034876610396e-04
1.080061114815972e-05 -1.107638822727510e-03 2.303157538636171e-04
6.723404075561939e-06 -6.381667799287624e-04 9.596101954880116e-05
-6.743700554264674e-06 -6.382671381623524e-04 9.597496296011369e-05
-1.613033459367277e-05 -6.450790411507331e-04 2.553639761646692e-04
1.615440898657846e-05 -6.449821936616343e-04 2.553442101300593e-04
1.144851529447189e-05 -6.408326658297826e-04 1.755316409830136e-04
-1.144637403071913e-05 -6.409312516594654e-04 1.755480728273037e-04
-9.135274450549024e-09 -6.459764706686450e-04 9.564357182836803e-05
1.198644698031307e-08 -6.527879498892580e-04 2.550183718393921e-04
1.103532148235508e-09 -3.039695411384693e-04 1.143968875933369e-04
-8.660004910426310e-09 -1.115585480514035e-03 2.301961842324386e-04