<?xml version="1.0" ?> 
<!-- 
# vtk DataFile Version 3.0
-->
<VTKFile type="UnstructuredGrid" version="0.1" compressor="vtkZLibDataCompressor" byte_order="LittleEndian">
  <UnstructuredGrid>
    <FieldData>
      <DataArray type="Float64" Name="TIME" NumberOfTuples="1" format="ascii">
1.000000000000000e-01 
      </DataArray>
    </FieldData>

    <Piece NumberOfPoints="3330" NumberOfCells="193" >
      <Points>
        <DataArray type="Float64" NumberOfComponents="3" format="ascii">
-5.000000000000000e-01 -5.000000000000000e-01 -1.000000000000000e+00
5.000000000000000e-01 -5.000000000000000e-01 -1.000000000000000e+00
5.000000000000000e-01 -4.166666666666666e-01 -1.000000000000000e+00
-5.000000000000000e-01 -4.166666666666666e-01 -1.000000000000000e+00
-5.000000000000000e-01 -5.000000000000000e-01 -9.156249999999999e-01
5.000000000000000e-01 -5.000000000000000e-01 -9.156249999999999e-01
5.000000000000000e-01 -4.166666666666666e-01 -9.156250000000000e-01
-5.000000000000000e-01 -4.166666666666666e-01 -9.156250000000000e-01
0.000000000000000e+00 -5.000000000000000e-01 -1.000000000000000e+00
5.000000000000000e-01 -4.583333333333333e-01 -1.000000000000000e+00
0.000000000000000e+00 -4.166666666666666e-01 -1.000000000000000e+00
-5.000000000000000e-01 -4.583333333333333e-01 -1.000000000000000e+00
0.000000000000000e+00 -5.000000000000000e-01 -9.156249999999999e-01
5.000000000000000e-01 -4.583333333333333e-01 -9.156250000000000e-01
0.000000000000000e+00 -4.166666666666666e-01 -9.156250000000000e-01
-5.000000000000000e-01 -4.583333333333333e-01 -9.156250000000000e-01
-5.000000000000000e-01 -5.000000000000000e-01 -9.578125000000000e-01
5.000000000000000e-01 -5.000000000000000e-01 -9.578125000000000e-01
5.000000000000000e-01 -4.166666666666666e-01 -9.578125000000000e-01
-5.000000000000000e-01 -4.166666666666666e-01 -9.578125000000000e-01
-5.000000000000000e-01 -4.583333333333333e-01 -9.578125000000001e-01
5.000000000000000e-01 -4.583333333333333e-01 -9.578125000000001e-01
0.000000000000000e+00 -5.000000000000000e-01 -9.578125000000001e-01
0.000000000000000e+00 -4.166666666666666e-01 -9.578125000000002e-01
0.000000000000000e+00 -4.583333333333333e-01 -1.000000000000000e+00
0.000000000000000e+00 -4.583333333333333e-01 -9.156250000000001e-01
0.000000000000000e+00 -4.583333333333333e-01 -9.578124999999998e-01
-5.000000000000000e-01 -4.166666666666666e-01 -1.000000000000000e+00
5.000000000000000e-01 -4.166666666666666e-01 -1.000000000000000e+00
5.000000000000000e-01 -3.333333333333333e-01 -1.000000000000000e+00
-5.000000000000000e-01 -3.333333333333333e-01 -1.000000000000000e+00
-5.000000000000000e-01 -4.166666666666666e-01 -9.156250000000000e-01
5.000000000000000e-01 -4.166666666666666e-01 -9.156250000000000e-01
5.000000000000000e-01 -3.333333333333333e-01 -9.156250000000000e-01
-5.000000000000000e-01 -3.333333333333333e-01 -9.156250000000000e-01
0.000000000000000e+00 -4.166666666666666e-01 -1.000000000000000e+00
5.000000000000001e-01 -3.750000000000000e-01 -1.000000000000000e+00
0.000000000000000e+00 -3.333333333333333e-01 -1.000000000000000e+00
-5.000000000000001e-01 -3.750000000000000e-01 -1.000000000000000e+00
0.000000000000000e+00 -4.166666666666666e-01 -9.156250000000000e-01
5.000000000000001e-01 -3.750000000000001e-01 -9.156250000000001e-01
0.000000000000000e+00 -3.333333333333333e-01 -9.156250000000000e-01
-5.000000000000001e-01 -3.750000000000001e-01 -9.156250000000001e-01
-5.000000000000000e-01 -4.166666666666666e-01 -9.578125000000000e-01
5.000000000000000e-01 -4.166666666666666e-01 -9.578125000000000e-01
5.000000000000000e-01 -3.333333333333333e-01 -9.578125000000000e-01
-5.000000000000000e-01 -3.333333333333333e-01 -9.578125000000000e-01
-5.000000000000001e-01 -3.750000000000000e-01 -9.578125000000003e-01
5.000000000000001e-01 -3.750000000000000e-01 -9.578125000000003e-01
0.000000000000000e+00 -4.166666666666666e-01 -9.578125000000002e-01
0.000000000000000e+00 -3.333333333333333e-01 -9.578125000000002e-01
0.000000000000000e+00 -3.750000000000000e-01 -1.000000000000000e+00
0.000000000000000e+00 -3.750000000000000e-01 -9.156250000000002e-01
0.000000000000000e+00 -3.749999999999999e-01 -9.578124999999997e-01
-5.000000000000000e-01 -3.333333333333333e-01 -1.000000000000000e+00
5.000000000000000e-01 -3.333333333333333e-01 -1.000000000000000e+00
5.000000000000000e-01 -2.500000000000000e-01 -1.000000000000000e+00
-5.000000000000000e-01 -2.500000000000000e-01 -1.000000000000000e+00
-5.000000000000000e-01 -3.333333333333333e-01 -9.156250000000000e-01
5.000000000000000e-01 -3.333333333333333e-01 -9.156250000000000e-01
5.000000000000000e-01 -2.500000000000000e-01 -9.156250000000001e-01
-5.000000000000000e-01 -2.500000000000000e-01 -9.156250000000001e-01
0.000000000000000e+00 -3.333333333333333e-01 -1.000000000000000e+00
5.000000000000000e-01 -2.916666666666666e-01 -1.000000000000000e+00
0.000000000000000e+00 -2.499999999999999e-01 -1.000000000000000e+00
-5.000000000000000e-01 -2.916666666666666e-01 -1.000000000000000e+00
0.000000000000000e+00 -3.333333333333333e-01 -9.156250000000000e-01
5.000000000000000e-01 -2.916666666666666e-01 -9.156249999999999e-01
0.000000000000000e+00 -2.500000000000000e-01 -9.156250000000000e-01
-5.000000000000000e-01 -2.916666666666666e-01 -9.156249999999999e-01
-5.000000000000000e-01 -3.333333333333333e-01 -9.578125000000000e-01
5.000000000000000e-01 -3.333333333333333e-01 -9.578125000000000e-01
5.000000000000000e-01 -2.499999999999999e-01 -9.578125000000000e-01
-5.000000000000000e-01 -2.499999999999999e-01 -9.578125000000000e-01
-5.000000000000000e-01 -2.916666666666666e-01 -9.578125000000001e-01
5.000000000000000e-01 -2.916666666666666e-01 -9.578125000000001e-01
0.000000000000000e+00 -3.333333333333333e-01 -9.578125000000002e-01
0.000000000000000e+00 -2.499999999999999e-01 -9.578125000000002e-01
0.000000000000000e+00 -2.916666666666666e-01 -1.000000000000000e+00
0.000000000000000e+00 -2.916666666666666e-01 -9.156250000000000e-01
0.000000000000000e+00 -2.916666666666666e-01 -9.578124999999997e-01
-5.000000000000000e-01 -2.500000000000000e-01 -1.000000000000000e+00
5.000000000000000e-01 -2.500000000000000e-01 -1.000000000000000e+00
5.000000000000000e-01 -1.666666666666667e-01 -1.000000000000000e+00
-5.000000000000000e-01 -1.666666666666667e-01 -1.000000000000000e+00
-5.000000000000000e-01 -2.500000000000000e-01 -9.156250000000001e-01
5.000000000000000e-01 -2.500000000000000e-01 -9.156250000000001e-01
5.000000000000000e-01 -1.666666666666667e-01 -9.156250000000000e-01
-5.000000000000000e-01 -1.666666666666667e-01 -9.156250000000000e-01
0.000000000000000e+00 -2.499999999999999e-01 -1.000000000000000e+00
5.000000000000000e-01 -2.083333333333333e-01 -1.000000000000000e+00
0.000000000000000e+00 -1.666666666666667e-01 -1.000000000000000e+00
-5.000000000000000e-01 -2.083333333333333e-01 -1.000000000000000e+00
0.000000000000000e+00 -2.500000000000000e-01 -9.156250000000000e-01
5.000000000000000e-01 -2.083333333333334e-01 -9.156250000000000e-01
0.000000000000000e+00 -1.666666666666667e-01 -9.156250000000000e-01
-5.000000000000000e-01 -2.083333333333334e-01 -9.156250000000000e-01
-5.000000000000000e-01 -2.499999999999999e-01 -9.578125000000000e-01
5.000000000000000e-01 -2.499999999999999e-01 -9.578125000000000e-01
5.000000000000000e-01 -1.666666666666667e-01 -9.578125000000000e-01
-5.000000000000000e-01 -1.666666666666667e-01 -9.578125000000000e-01
-5.000000000000000e-01 -2.083333333333334e-01 -9.578125000000002e-01
5.000000000000000e-01 -2.083333333333334e-01 -9.578125000000002e-01
0.000000000000000e+00 -2.499999999999999e-01 -9.578125000000002e-01
0.000000000000000e+00 -1.666666666666667e-01 -9.578125000000002e-01
0.000000000000000e+00 -2.083333333333334e-01 -1.000000000000000e+00
0.000000000000000e+00 -2.083333333333334e-01 -9.156250000000001e-01
0.000000000000000e+00 -2.083333333333333e-01 -9.578124999999998e-01
-5.000000000000000e-01 -1.666666666666667e-01 -1.000000000000000e+00
5.000000000000000e-01 -1.666666666666667e-01 -1.000000000000000e+00
5.000000000000000e-01 -8.333333333333334e-02 -1.000000000000000e+00
-5.000000000000000e-01 -8.333333333333334e-02 -1.000000000000000e+00
-5.000000000000000e-01 -1.666666666666667e-01 -9.156250000000000e-01
5.000000000000000e-01 -1.666666666666667e-01 -9.156250000000000e-01
5.000000000000000e-01 -8.333333333333337e-02 -9.156250000000001e-01
-5.000000000000000e-01 -8.333333333333337e-02 -9.156250000000001e-01
0.000000000000000e+00 -1.666666666666667e-01 -1.000000000000000e+00
5.000000000000001e-01 -1.250000000000000e-01 -1.000000000000000e+00
0.000000000000000e+00 -8.333333333333334e-02 -1.000000000000000e+00
-5.000000000000001e-01 -1.250000000000000e-01 -1.000000000000000e+00
0.000000000000000e+00 -1.666666666666667e-01 -9.156250000000000e-01
5.000000000000000e-01 -1.250000000000000e-01 -9.156250000000001e-01
0.000000000000000e+00 -8.333333333333334e-02 -9.156249999999999e-01
-5.000000000000000e-01 -1.250000000000000e-01 -9.156250000000001e-01
-5.000000000000000e-01 -1.666666666666667e-01 -9.578125000000000e-01
5.000000000000000e-01 -1.666666666666667e-01 -9.578125000000000e-01
5.000000000000000e-01 -8.333333333333336e-02 -9.578125000000000e-01
-5.000000000000000e-01 -8.333333333333336e-02 -9.578125000000000e-01
-5.000000000000000e-01 -1.250000000000000e-01 -9.578125000000002e-01
5.000000000000000e-01 -1.250000000000000e-01 -9.578125000000002e-01
0.000000000000000e+00 -1.666666666666667e-01 -9.578125000000002e-01
0.000000000000000e+00 -8.333333333333334e-02 -9.578125000000001e-01
0.000000000000000e+00 -1.250000000000000e-01 -1.000000000000000e+00
0.000000000000000e+00 -1.250000000000000e-01 -9.156250000000002e-01
0.000000000000000e+00 -1.250000000000000e-01 -9.578124999999998e-01
-5.000000000000000e-01 -8.333333333333334e-02 -1.000000000000000e+00
5.000000000000000e-01 -8.333333333333334e-02 -1.000000000000000e+00
5.000000000000000e-01 0.000000000000000e+00 -1.000000000000000e+00
-5.000000000000000e-01 0.000000000000000e+00 -1.000000000000000e+00
[...]
  <PointData>
        <DataArray type="Float64" Name="displacement" NumberOfComponents="3" format="ascii">
0.000000000000000e+00 0.000000000000000e+00 0.000000000000000e+00
0.000000000000000e+00 0.000000000000000e+00 0.000000000000000e+00
-5.837744249182610e-07 2.119073375361256e-07 2.457690205702178e-04
5.837744249160023e-07 2.119073375310368e-07 2.457690205702174e-04
5.244386865132437e-07 -2.349129401774402e-04 1.671918516757655e-04
-5.244386865146724e-07 -2.349129401774345e-04 1.671918516757650e-04
-5.659199213109435e-07 -2.352119054572094e-04 3.857087556502290e-04
5.659199213085783e-07 -2.352119054572149e-04 3.857087556502312e-04
0.000000000000000e+00 0.000000000000000e+00 0.000000000000000e+00
-4.186963338893988e-07 4.595461579992263e-08 1.226414609993113e-04
-1.086359459523043e-18 1.653884149853156e-07 2.461384652800371e-04
4.186963338879983e-07 4.595461579678072e-08 1.226414609993106e-04
-5.516434417891639e-19 -2.350787480412566e-04 1.674989209255636e-04
-5.310567935305362e-07 -2.350775201774524e-04 2.763917938029727e-04
-1.058361050149348e-18 -2.353372786641772e-04 3.861112073129167e-04
5.310567935286781e-07 -2.350775201774576e-04 2.763917938029747e-04
3.772204603934606e-07 -1.207311853067908e-04 8.363382721926537e-05
-3.772204603945160e-07 -1.207311853067875e-04 8.363382721926523e-05
-5.376016452298040e-07 -1.209297958620777e-04 3.157561682841116e-04
5.376016452275570e-07 -1.209297958620831e-04 3.157561682841124e-04
4.629205255665292e-07 -1.208703606874947e-04 1.995551593846209e-04
-4.629205255681239e-07 -1.208703606874902e-04 1.995551593846197e-04
-4.836161082128029e-19 -1.208794262344413e-04 8.380297455335267e-05
-1.082741371523736e-18 -1.210299630502584e-04 3.161188295582379e-04
-6.631606232511129e-19 9.603728465477497e-09 1.228989556558602e-04
-7.586520075254595e-19 -2.352312383983289e-04 2.767421352001891e-04
-7.617890899985669e-19 -1.209998631786521e-04 1.998367175769942e-04
5.837744249160023e-07 2.119073375310368e-07 2.457690205702174e-04
-5.837744249182610e-07 2.119073375361256e-07 2.457690205702178e-04
-6.363495606605182e-07 6.300823931551689e-07 4.927738595729364e-04
6.363495606570341e-07 6.300823931490383e-07 4.927738595729362e-04
5.659199213085783e-07 -2.352119054572149e-04 3.857087556502312e-04
-5.659199213109435e-07 -2.352119054572094e-04 3.857087556502290e-04
-6.021228017980128e-07 -2.353413633561015e-04 6.047269808706561e-04
6.021228017945761e-07 -2.353413633561078e-04 6.047269808706576e-04
-1.086359459523043e-18 1.653884149853156e-07 2.461384652800371e-04
-6.160526936531224e-07 4.294269887930580e-07 3.692055347492497e-04
-1.722428263351819e-18 6.063288744608721e-07 4.931894631152427e-04
6.160526936502637e-07 4.294269887870342e-07 3.692055347492497e-04
-1.058361050149348e-18 -2.353372786641772e-04 3.861112073129167e-04
-5.994634605140504e-07 -2.353039138917457e-04 4.951510478089763e-04
-1.684933820546015e-18 -2.353836215862662e-04 6.051778542805648e-04
5.994634605111445e-07 -2.353039138917518e-04 4.951510478089780e-04
5.376016452275570e-07 -1.209297958620831e-04 3.157561682841124e-04
-5.376016452298040e-07 -1.209297958620777e-04 3.157561682841116e-04
-6.004074172648779e-07 -1.208653008761997e-04 5.487386766733985e-04
6.004074172614067e-07 -1.208653008762057e-04 5.487386766734003e-04
5.878889116885231e-07 -1.209234546513790e-04 4.321722190147143e-04
-5.878889116914308e-07 -1.209234546513733e-04 4.321722190147137e-04
-1.082741371523736e-18 -1.210299630502584e-04 3.161188295582379e-04
-1.707289203780873e-18 -1.208952631835636e-04 5.491630525004213e-04
-1.396992249316306e-18 3.900611126277139e-07 3.696061080430062e-04
-1.388035537643582e-18 -2.353902720048177e-04 4.955938695707181e-04
-1.410045159382393e-18 -1.209887537512368e-04 4.325830335238062e-04
6.363495606570341e-07 6.300823931490383e-07 4.927738595729362e-04
-6.363495606605182e-07 6.300823931551689e-07 4.927738595729364e-04
-5.902190461870739e-07 1.058912700263861e-06 7.402393992244252e-04
5.902190461823183e-07 1.058912700255584e-06 7.402393992244245e-04
6.021228017945761e-07 -2.353413633561078e-04 6.047269808706576e-04
-6.021228017980128e-07 -2.353413633561015e-04 6.047269808706561e-04
-5.384205926277403e-07 -2.353043663977734e-04 8.241795341836118e-04
5.384205926230838e-07 -2.353043663977806e-04 8.241795341836124e-04
-1.722428263351819e-18 6.063288744608721e-07 4.931894631152427e-04
-6.319700151139888e-07 8.334016103896920e-07 6.164573595588159e-04
-2.371506963854829e-18 1.081032274021752e-06 7.406189696484724e-04
6.319700151098677e-07 8.334016103831785e-07 6.164573595588153e-04
-1.684933820546015e-18 -2.353836215862662e-04 6.051778542805648e-04
-5.798058706676397e-07 -2.353371991061522e-04 7.144114959554681e-04
-2.321426140848419e-18 -2.352566193466021e-04 8.245794759510420e-04
5.798058706636353e-07 -2.353371991061588e-04 7.144114959554694e-04
6.004074172614067e-07 -1.208653008762057e-04 5.487386766734003e-04
-6.004074172648779e-07 -1.208653008761997e-04 5.487386766733985e-04
-5.443005439968724e-07 -1.206526090990681e-04 7.821980556937541e-04
5.443005439921735e-07 -1.206526090990758e-04 7.821980556937552e-04
5.831977615085195e-07 -1.207700979032192e-04 6.654243519898530e-04
-5.831977615125552e-07 -1.207700979032128e-04 6.654243519898505e-04
-1.707289203780873e-18 -1.208952631835636e-04 5.491630525004213e-04
-2.346688236755788e-18 -1.206064276766670e-04 7.825787490052509e-04
-2.051126677723241e-18 8.310373713153612e-07 6.168674453619852e-04
-1.984310336563657e-18 -2.353336348772765e-04 7.148455826661190e-04
-2.008253079394005e-18 -1.207632387058401e-04 6.658359398676979e-04
5.902190461823183e-07 1.058912700255584e-06 7.402393992244245e-04
-5.902190461870739e-07 1.058912700263861e-06 7.402393992244252e-04
-4.379614145801213e-07 1.557385165205669e-06 9.880705251729990e-04
4.379614145740172e-07 1.557385165198704e-06 9.880705251729988e-04
5.384205926230838e-07 -2.353043663977806e-04 8.241795341836124e-04
-5.384205926277403e-07 -2.353043663977734e-04 8.241795341836118e-04
-4.017786031958274e-07 -2.351709423987629e-04 1.043957490946745e-03
4.017786031898265e-07 -2.351709423987703e-04 1.043957490946746e-03
-2.371506963854829e-18 1.081032274021752e-06 7.406189696484724e-04
-5.219362979767821e-07 1.301834329596308e-06 8.641128354643057e-04
-3.058530093416872e-18 1.631826708796085e-06 9.883432750831360e-04
5.219362979713726e-07 1.301834329587132e-06 8.641128354643049e-04
-2.321426140848419e-18 -2.352566193466021e-04 8.245794759510420e-04
-4.788003695224307e-07 -2.352474269292239e-04 9.340289232742996e-04
-3.008697424594227e-18 -2.350405172963546e-04 1.044245452469460e-03
4.788003695170912e-07 -2.352474269292315e-04 9.340289232742998e-04
5.443005439921735e-07 -1.206526090990758e-04 7.821980556937552e-04
-5.443005439968724e-07 -1.206526090990681e-04 7.821980556937541e-04
-4.075857244971683e-07 -1.203554449932087e-04 1.015998990552777e-03
4.075857244910951e-07 -1.203554449932162e-04 1.015998990552777e-03
4.852513399178662e-07 -1.205140022127498e-04 8.990571483573240e-04
-4.852513399232649e-07 -1.205140022127414e-04 8.990571483573242e-04
-2.346688236755788e-18 -1.206064276766670e-04 7.825787490052509e-04
-3.044612779610667e-18 -1.202366889416590e-04 1.016274615334474e-03
-2.701376665973626e-18 1.350049935531506e-06 8.644441936603176e-04
-2.671230068549131e-18 -2.351573288632818e-04 9.343794579479500e-04
-2.699753530816644e-18 -1.204293908404662e-04 8.993916005989020e-04
4.379614145740172e-07 1.557385165198704e-06 9.880705251729988e-04
-4.379614145801213e-07 1.557385165205669e-06 9.880705251729990e-04
-2.272430454754394e-07 2.102493159881598e-06 1.236226673131672e-03
2.272430454679662e-07 2.102493159875186e-06 1.236226673131675e-03
4.017786031898265e-07 -2.351709423987703e-04 1.043957490946746e-03
-4.017786031958274e-07 -2.351709423987629e-04 1.043957490946745e-03
-2.105690586565827e-07 -2.349718059822149e-04 1.264035233244399e-03
2.105690586492347e-07 -2.349718059822224e-04 1.264035233244399e-03
-3.058530093416872e-18 1.631826708796085e-06 9.883432750831360e-04
-3.393713468090282e-07 1.824594883248560e-06 1.112109470384217e-03
-3.747174496979518e-18 2.220695494510125e-06 1.236357800912575e-03
3.393713468022243e-07 1.824594883243616e-06 1.112109470384218e-03
-3.008697424594227e-18 -2.350405172963546e-04 1.044245452469460e-03
-3.111149480923911e-07 -2.350780297639174e-04 1.153961005002821e-03
-3.688804497054714e-18 -2.347785861066253e-04 1.264173372161748e-03
3.111149480857282e-07 -2.350780297639246e-04 1.153961005002821e-03
4.075857244910951e-07 -1.203554449932162e-04 1.015998990552777e-03
-4.075857244971683e-07 -1.203554449932087e-04 1.015998990552777e-03
-2.121047195065714e-07 -1.199961381730581e-04 1.250114708723678e-03
2.121047194991916e-07 -1.199961381730650e-04 1.250114708723678e-03
3.152285626916177e-07 -1.201813520951096e-04 1.133019528576200e-03
-3.152285626983484e-07 -1.201813520951032e-04 1.133019528576199e-03
-3.044612779610667e-18 -1.202366889416590e-04 1.016274615334474e-03
-3.703569464193632e-18 -1.198231364993828e-04 1.250246672085022e-03
-3.416095456805169e-18 1.923122069795590e-06 1.112314911604648e-03
-3.344370419095543e-18 -2.349122484445570e-04 1.154176932784438e-03
-3.379737508462225e-18 -1.200330336160348e-04 1.133226677675377e-03
2.272430454679662e-07 2.102493159875186e-06 1.236226673131675e-03
-2.272430454754394e-07 2.102493159881598e-06 1.236226673131672e-03
1.984316601485053e-08 2.677247945911391e-06 1.484689487737382e-03
-1.984316602369953e-08 2.677247945902598e-06 1.484689487737383e-03
2.105690586492347e-07 -2.349718059822224e-04 1.264035233244399e-03
-2.105690586565827e-07 -2.349718059822149e-04 1.264035233244399e-03
9.436695390411917e-09 -2.347342663596539e-04 1.484391514155303e-03
-9.436695399157562e-09 -2.347342663596615e-04 1.484391514155304e-03
-3.747174496979518e-18 2.220695494510125e-06 1.236357800912575e-03
-1.060227835454485e-07 2.387803134353102e-06 1.360420542540887e-03
-4.435554202746148e-18 2.819192412694705e-06 1.484658527629993e-03
1.060227835373043e-07 2.387803134344490e-06 1.360420542540891e-03
-3.688804497054714e-18 -2.347785861066253e-04 1.264173372161748e-03
-1.028241168438367e-07 -2.348559813990092e-04 1.374179096139289e-03
-4.392339806004540e-18 -2.345096923083859e-04 1.484361335454206e-03
1.028241168357909e-07 -2.348559813990169e-04 1.374179096139289e-03
2.121047194991916e-07 -1.199961381730650e-04 1.250114708723678e-03
-2.121047195065714e-07 -1.199961381730581e-04 1.250114708723678e-03
1.442267537238188e-08 -1.196029496238564e-04 1.484522026463955e-03
-1.442267538116660e-08 -1.196029496238645e-04 1.484522026463956e-03
1.012192788346516e-07 -1.198024538187580e-04 1.367282788763499e-03
-1.012192788427051e-07 -1.198024538187503e-04 1.367282788763500e-03
-3.703569464193632e-18 -1.198231364993828e-04 1.250246672085022e-03
-4.408189206926516e-18 -1.194003091822161e-04 1.484491382441909e-03
-4.078187362704863e-18 2.520675952342295e-06 1.360472240442497e-03
-4.039093152594382e-18 -2.346431831165662e-04 1.374234822439101e-03
-4.038822664534077e-18 -1.196109206640081e-04 1.367334829896252e-03
-1.984316602369953e-08 2.677247945902598e-06 1.484689487737383e-03
1.984316601485053e-08 2.677247945911391e-06 1.484689487737382e-03
2.738520227373158e-07 3.256068446617514e-06 1.733444475821594e-03
-2.738520227476157e-07 3.256068446609440e-06 1.733444475821595e-03
-9.436695399157562e-09 -2.347342663596615e-04 1.484391514155304e-03
9.436695390411917e-09 -2.347342663596539e-04 1.484391514155303e-03
2.350748153723206e-07 -2.344860958460867e-04 1.705011837936200e-03
-2.350748153824216e-07 -2.344860958460944e-04 1.705011837936201e-03
-4.435554202746148e-18 2.819192412694705e-06 1.484658527629993e-03
1.474397768831933e-07 2.967709186138763e-06 1.609031476303502e-03
-5.168449460357931e-18 3.400108899322398e-06 1.733245469713240e-03
-1.474397768927659e-07 2.967709186130565e-06 1.609031476303502e-03
-4.392339806004540e-18 -2.345096923083859e-04 1.484361335454206e-03
1.231055991083890e-07 -2.346098935975471e-04 1.594669942888815e-03
-5.078740068565330e-18 -2.342605818448693e-04 1.704807140313622e-03
-1.231055991178239e-07 -2.346098935975547e-04 1.594669942888817e-03
-1.442267538116660e-08 -1.196029496238645e-04 1.484522026463956e-03
1.442267537238188e-08 -1.196029496238564e-04 1.484522026463955e-03
2.476478560900768e-07 -1.191996486813463e-04 1.719207814156758e-03
-2.476478561002938e-07 -1.191996486813541e-04 1.719207814156759e-03
-1.317390760566770e-07 -1.194009173306435e-04 1.601830881652543e-03
1.317390760471542e-07 -1.194009173306355e-04 1.601830881652542e-03
-4.408189206926516e-18 -1.194003091822161e-04 1.484491382441909e-03
-5.130829286099020e-18 -1.189961205142760e-04 1.719008221407565e-03
-4.804054893832396e-18 3.113313765157892e-06 1.608916368658946e-03
-4.741296700757998e-18 -2.343811473338863e-04 1.594552308861050e-03
-4.782065951608899e-18 -1.191943573627307e-04 1.601715967139759e-03
-2.738520227476157e-07 3.256068446609440e-06 1.733444475821595e-03
2.738520227373158e-07 3.256068446617514e-06 1.733444475821594e-03
5.107197551459290e-07 3.815881689313725e-06 1.982477734058462e-03
-5.107197551576784e-07 3.815881689306535e-06 1.982477734058464e-03
-2.350748153824216e-07 -2.344860958460944e-04 1.705011837936201e-03
2.350748153723206e-07 -2.344860958460867e-04 1.705011837936200e-03
4.437769979323599e-07 -2.342521219967302e-04 1.925882313633066e-03
-4.437769979438677e-07 -2.342521219967386e-04 1.925882313633067e-03
-5.168449460357931e-18 3.400108899322398e-06 1.733245469713240e-03
3.959789875129755e-07 3.539675892593789e-06 1.857927042877850e-03
-5.890174470977799e-18 3.944440979119898e-06 1.982116861715962e-03
-3.959789875240023e-07 3.539675892585880e-06 1.857927042877852e-03
-5.078740068565330e-18 -2.342605818448693e-04 1.704807140313622e-03
3.428100472807850e-07 -2.343658472606790e-04 1.815416270962577e-03
-5.779497705018204e-18 -2.340538854709540e-04 1.925508755943602e-03
-3.428100472915650e-07 -2.343658472606871e-04 1.815416270962578e-03
-2.476478561002938e-07 -1.191996486813541e-04 1.719207814156759e-03
2.476478560900768e-07 -1.191996486813463e-04 1.719207814156758e-03
4.641451380451383e-07 -1.188126201029031e-04 1.954157706223879e-03
-4.641451380567688e-07 -1.188126201029108e-04 1.954157706223880e-03
-3.593746614532477e-07 -1.190024481230814e-04 1.836650772754556e-03
3.593746614423413e-07 -1.190024481230739e-04 1.836650772754555e-03
-5.130829286099020e-18 -1.189961205142760e-04 1.719008221407565e-03
-5.835744332310584e-18 -1.186297973540460e-04 1.953795023037661e-03
-5.530056428219163e-18 3.677757931779355e-06 1.857645683247403e-03
-5.419760165341342e-18 -2.341506198782526e-04 1.815125924458836e-03
-5.475161414047694e-18 -1.188073500427489e-04 1.836367966341482e-03
-5.107197551576784e-07 3.815881689306535e-06 1.982477734058464e-03
5.107197551459290e-07 3.815881689313725e-06 1.982477734058462e-03
7.082361197511304e-07 4.338568921640399e-06 2.231788117934562e-03
-7.082361197643896e-07 4.338568921632466e-06 2.231788117934564e-03
-4.437769979438677e-07 -2.342521219967386e-04 1.925882313633067e-03
4.437769979323599e-07 -2.342521219967302e-04 1.925882313633066e-03
6.163399428310809e-07 -2.340666009433609e-04 2.147000378078797e-03
-6.163399428440512e-07 -2.340666009433688e-04 2.147000378078798e-03
-5.890174470977799e-18 3.944440979119898e-06 1.982116861715962e-03
6.156226808280296e-07 4.082805983441277e-06 2.107097706648883e-03
-6.647514570051749e-18 4.447339559944059e-06 2.231285411401969e-03
-6.156226808405165e-07 4.082805983434400e-06 2.107097706648884e-03
-5.779497705018204e-18 -2.340538854709540e-04 1.925508755943602e-03
5.357091391686053e-07 -2.341505099317782e-04 2.036410253490771e-03
-6.504114539059556e-18 -2.339094884809807e-04 2.146478709586558e-03
-5.357091391808550e-07 -2.341505099317867e-04 2.036410253490773e-03
-4.641451380567688e-07 -1.188126201029108e-04 1.954157706223880e-03
4.641451380451383e-07 -1.188126201029031e-04 1.954157706223879e-03
6.437471522750519e-07 -1.184700063284164e-04 2.189371029369070e-03
-6.437471522881401e-07 -1.184700063284241e-04 2.189371029369072e-03
-5.596917977290138e-07 -1.186338957837293e-04 2.071730497462723e-03
5.596917977166482e-07 -1.186338957837214e-04 2.071730497462722e-03
-5.835744332310584e-18 -1.186297973540460e-04 1.953795023037661e-03
-6.565238223243550e-18 -1.183198624780587e-04 2.188866292427775e-03
-6.259186359682605e-18 4.200765651717107e-06 2.106662329605344e-03
-6.145202525634023e-18 -2.339727259096410e-04 2.035958671931612e-03
-6.202471134573213e-18 -1.184663417364038e-04 2.071293196673845e-03
-7.082361197643896e-07 4.338568921632466e-06 2.231788117934564e-03
7.082361197511304e-07 4.338568921640399e-06 2.231788117934562e-03
8.506146132642771e-07 4.795152866231508e-06 2.481391295926036e-03
-8.506146132789390e-07 4.795152866223549e-06 2.481391295926038e-03
-6.163399428440512e-07 -2.340666009433688e-04 2.147000378078798e-03
6.163399428310809e-07 -2.340666009433609e-04 2.147000378078797e-03
7.387694621260225e-07 -2.339673369315327e-04 2.368375485498540e-03
-7.387694621403852e-07 -2.339673369315392e-04 2.368375485498541e-03
-6.647514570051749e-18 4.447339559944059e-06 2.231285411401969e-03
7.870650909012175e-07 4.577806037905628e-06 2.356551727749084e-03
-7.349241662182534e-18 4.894442937860247e-06 2.480788695594626e-03
-7.870650909152221e-07 4.577806037896818e-06 2.356551727749088e-03
-6.504114539059556e-18 -2.339094884809807e-04 2.146478709586558e-03
6.844373900926116e-07 -2.340042562153289e-04 2.257654763410325e-03
-7.199971957563665e-18 -2.338519700555985e-04 2.367747587493140e-03
-6.844373901062851e-07 -2.340042562153360e-04 2.257654763410326e-03
-6.437471522881401e-07 -1.184700063284241e-04 2.189371029369072e-03
6.437471522750519e-07 -1.184700063284164e-04 2.189371029369070e-03
7.730585056420925e-07 -1.182037689119240e-04 2.424859766629079e-03
-7.730585056565969e-07 -1.182037689119307e-04 2.424859766629081e-03
-7.152298416315375e-07 -1.183252109626173e-04 2.307080414804125e-03
7.152298416177370e-07 -1.183252109626100e-04 2.307080414804123e-03
-6.565238223243550e-18 -1.183198624780587e-04 2.188866292427775e-03
-7.271255074031035e-18 -1.180838516998418e-04 2.424252958260217e-03
-7.021936219962652e-18 4.679964667444015e-06 2.355992176825256e-03
-6.855853242213030e-18 -2.338679706934682e-04 2.257073478307409e-03
-6.922133983925985e-18 -1.181918642441562e-04 2.306518237292285e-03
-8.506146132789390e-07 4.795152866223549e-06 2.481391295926038e-03
8.506146132642771e-07 4.795152866231508e-06 2.481391295926036e-03
9.350562768498467e-07 5.233538529161063e-06 2.731385320142030e-03
-9.350562768657630e-07 5.233538529157846e-06 2.731385320142032e-03
-7.387694621403852e-07 -2.339673369315392e-04 2.368375485498541e-03
7.387694621260225e-07 -2.339673369315327e-04 2.368375485498540e-03
8.097774175336660e-07 -2.340410399854215e-04 2.590099394642708e-03
-8.097774175491796e-07 -2.340410399854275e-04 2.590099394642709e-03
-7.349241662182534e-18 4.894442937860247e-06 2.480788695594626e-03
8.996799281454426e-07 5.007950124142000e-06 2.606328575659117e-03
-7.977488646139009e-18 5.335413279925878e-06 2.730740017225271e-03
-8.996799281607248e-07 5.007950124136084e-06 2.606328575659118e-03
-7.199971957563665e-18 -2.338519700555985e-04 2.367747587493140e-03
7.802461431876091e-07 -2.339736594141658e-04 2.479183408017861e-03
-7.767199482093328e-18 -2.339540055235995e-04 2.589426808234936e-03
-7.802461432026007e-07 -2.339736594141720e-04 2.479183408017863e-03
-7.730585056565969e-07 -1.182037689119307e-04 2.424859766629081e-03
7.730585056420925e-07 -1.182037689119240e-04 2.424859766629079e-03
8.503726370894320e-07 -1.180910245731850e-04 2.660738059603037e-03
-8.503726371051257e-07 -1.180910245731900e-04 2.660738059603038e-03
-8.178878642016744e-07 -1.181207001306822e-04 2.542736507382524e-03
8.178878641865226e-07 -1.181207001306765e-04 2.542736507382523e-03
-7.271255074031035e-18 -1.180838516998418e-04 2.424252958260217e-03
-7.862376537734905e-18 -1.179863174144296e-04 2.660089669717584e-03
-7.658157225024138e-18 5.107387949313837e-06 2.605697223723492e-03