<?xml version="1.0" ?> 
<!-- 
# vtk DataFile Version 3.0
-->
<VTKFile type="UnstructuredGrid" version="0.1" compressor="vtkZLibDataCompressor" byte_order="LittleEndian">
  <UnstructuredGrid>
    <FieldData>
      <DataArray type="Float64" Name="TIME" NumberOfTuples="1" format="ascii">
1.000000000000000e-01 
      </DataArray>
    </FieldData>

    <Piece NumberOfPoints="3330" NumberOfCells="193" >
      <Points>
        <DataArray type="Float64" NumberOfComponents="3" format="ascii">
-5.000000000000000e-01 -5.000000000000000e-01 -1.000000000000000e+00
5.000000000000000e-01 -5.000000000000000e-01 -1.000000000000000e+00
5.000000000000000e-01 -4.166666666666666e-01 -1.000000000000000e+00
-5.000000000000000e-01 -4.166666666666666e-01 -1.000000000000000e+00
-5.000000000000000e-01 -5.000000000000000e-01 -9.156249999999999e-01
5.000000000000000e-01 -5.000000000000000e-01 -9.156249999999999e-01
5.000000000000000e-01 -4.166666666666666e-01 -9.156250000000000e-01
-5.000000000000000e-01 -4.166666666666666e-01 -9.156250000000000e-01
0.000000000000000e+00 -5.000000000000000e-01 -1.000000000000000e+00
5.000000000000000e-01 -4.583333333333333e-01 -1.000000000000000e+00
0.000000000000000e+00 -4.166666666666666e-01 -1.000000000000000e+00
-5.000000000000000e-01 -4.583333333333333e-01 -1.000000000000000e+00
0.000000000000000e+00 -5.000000000000000e-01 -9.156249999999999e-01
5.000000000000000e-01 -4.583333333333333e-01 -9.156250000000000e-01
0.000000000000000e+00 -4.166666666666666e-01 -9.156250000000000e-01
-5.000000000000000e-01 -4.583333333333333e-01 -9.156250000000000e-01
-5.000000000000000e-01 -5.000000000000000e-01 -9.578125000000000e-01
5.000000000000000e-01 -5.000000000000000e-01 -9.578125000000000e-01
5.000000000000000e-01 -4.166666666666666e-01 -9.578125000000000e-01
-5.000000000000000e-01 -4.166666666666666e-01 -9.578125000000000e-01
-5.000000000000000e-01 -4.583333333333333e-01 -9.578125000000001e-01
5.000000000000000e-01 -4.583333333333333e-01 -9.578125000000001e-01
0.000000000000000e+00 -5.000000000000000e-01 -9.578125000000001e-01
0.000000000000000e+00 -4.166666666666666e-01 -9.578125000000002e-01
0.000000000000000e+00 -4.583333333333333e-01 -1.000000000000000e+00
0.000000000000000e+00 -4.583333333333333e-01 -9.156250000000001e-01
0.000000000000000e+00 -4.583333333333333e-01 -9.578124999999998e-01
-5.000000000000000e-01 -4.166666666666666e-01 -1.000000000000000e+00
5.000000000000000e-01 -4.166666666666666e-01 -1.000000000000000e+00
5.000000000000000e-01 -3.333333333333333e-01 -1.000000000000000e+00
-5.000000000000000e-01 -3.333333333333333e-01 -1.000000000000000e+00
-5.000000000000000e-01 -4.166666666666666e-01 -9.156250000000000e-01
5.000000000000000e-01 -4.166666666666666e-01 -9.156250000000000e-01
5.000000000000000e-01 -3.333333333333333e-01 -9.156250000000000e-01
-5.000000000000000e-01 -3.333333333333333e-01 -9.156250000000000e-01
0.000000000000000e+00 -4.166666666666666e-01 -1.000000000000000e+00
5.000000000000001e-01 -3.750000000000000e-01 -1.000000000000000e+00
0.000000000000000e+00 -3.333333333333333e-01 -1.000000000000000e+00
-5.000000000000001e-01 -3.750000000000000e-01 -1.000000000000000e+00
0.000000000000000e+00 -4.166666666666666e-01 -9.156250000000000e-01
5.000000000000001e-01 -3.750000000000001e-01 -9.156250000000001e-01
0.000000000000000e+00 -3.333333333333333e-01 -9.156250000000000e-01
-5.000000000000001e-01 -3.750000000000001e-01 -9.156250000000001e-01
-5.000000000000000e-01 -4.166666666666666e-01 -9.578125000000000e-01
5.000000000000000e-01 -4.166666666666666e-01 -9.578125000000000e-01
5.000000000000000e-01 -3.333333333333333e-01 -9.578125000000000e-01
-5.000000000000000e-01 -3.333333333333333e-01 -9.578125000000000e-01
-5.000000000000001e-01 -3.750000000000000e-01 -9.578125000000003e-01
5.000000000000001e-01 -3.750000000000000e-01 -9.578125000000003e-01
0.000000000000000e+00 -4.166666666666666e-01 -9.578125000000002e-01
0.000000000000000e+00 -3.333333333333333e-01 -9.578125000000002e-01
0.000000000000000e+00 -3.750000000000000e-01 -1.000000000000000e+00
0.000000000000000e+00 -3.750000000000000e-01 -9.156250000000002e-01
0.000000000000000e+00 -3.749999999999999e-01 -9.578124999999997e-01
-5.000000000000000e-01 -3.333333333333333e-01 -1.000000000000000e+00
5.000000000000000e-01 -3.333333333333333e-01 -1.000000000000000e+00
5.000000000000000e-01 -2.500000000000000e-01 -1.000000000000000e+00
-5.000000000000000e-01 -2.500000000000000e-01 -1.000000000000000e+00
-5.000000000000000e-01 -3.333333333333333e-01 -9.156250000000000e-01
5.000000000000000e-01 -3.333333333333333e-01 -9.156250000000000e-01
5.000000000000000e-01 -2.500000000000000e-01 -9.156250000000001e-01
-5.000000000000000e-01 -2.500000000000000e-01 -9.156250000000001e-01
0.000000000000000e+00 -3.333333333333333e-01 -1.000000000000000e+00
5.000000000000000e-01 -2.916666666666666e-01 -1.000000000000000e+00
0.000000000000000e+00 -2.499999999999999e-01 -1.000000000000000e+00
-5.000000000000000e-01 -2.916666666666666e-01 -1.000000000000000e+00
0.000000000000000e+00 -3.333333333333333e-01 -9.156250000000000e-01
5.000000000000000e-01 -2.916666666666666e-01 -9.156249999999999e-01
0.000000000000000e+00 -2.500000000000000e-01 -9.156250000000000e-01
-5.000000000000000e-01 -2.916666666666666e-01 -9.156249999999999e-01
-5.000000000000000e-01 -3.333333333333333e-01 -9.578125000000000e-01
5.000000000000000e-01 -3.333333333333333e-01 -9.578125000000000e-01
5.000000000000000e-01 -2.499999999999999e-01 -9.578125000000000e-01
-5.000000000000000e-01 -2.499999999999999e-01 -9.578125000000000e-01
-5.000000000000000e-01 -2.916666666666666e-01 -9.578125000000001e-01
5.000000000000000e-01 -2.916666666666666e-01 -9.578125000000001e-01
0.000000000000000e+00 -3.333333333333333e-01 -9.578125000000002e-01
0.000000000000000e+00 -2.499999999999999e-01 -9.578125000000002e-01
0.000000000000000e+00 -2.916666666666666e-01 -1.000000000000000e+00
0.000000000000000e+00 -2.916666666666666e-01 -9.156250000000000e-01
0.000000000000000e+00 -2.916666666666666e-01 -9.578124999999997e-01
-5.000000000000000e-01 -2.500000000000000e-01 -1.000000000000000e+00
5.000000000000000e-01 -2.500000000000000e-01 -1.000000000000000e+00
5.000000000000000e-01 -1.666666666666667e-01 -1.000000000000000e+00
-5.000000000000000e-01 -1.666666666666667e-01 -1.000000000000000e+00
-5.000000000000000e-01 -2.500000000000000e-01 -9.156250000000001e-01
5.000000000000000e-01 -2.500000000000000e-01 -9.156250000000001e-01
5.000000000000000e-01 -1.666666666666667e-01 -9.156250000000000e-01
-5.000000000000000e-01 -1.666666666666667e-01 -9.156250000000000e-01
0.000000000000000e+00 -2.499999999999999e-01 -1.000000000000000e+00
5.000000000000000e-01 -2.083333333333333e-01 -1.000000000000000e+00
0.000000000000000e+00 -1.666666666666667e-01 -1.000000000000000e+00
-5.000000000000000e-01 -2.083333333333333e-01 -1.000000000000000e+00
0.000000000000000e+00 -2.500000000000000e-01 -9.156250000000000e-01
5.000000000000000e-01 -2.083333333333334e-01 -9.156250000000000e-01
0.000000000000000e+00 -1.666666666666667e-01 -9.156250000000000e-01
-5.000000000000000e-01 -2.083333333333334e-01 -9.156250000000000e-01
-5.000000000000000e-01 -2.499999999999999e-01 -9.578125000000000e-01
5.000000000000000e-01 -2.499999999999999e-01 -9.578125000000000e-01
5.000000000000000e-01 -1.666666666666667e-01 -9.578125000000000e-01
-5.000000000000000e-01 -1.666666666666667e-01 -9.578125000000000e-01
-5.000000000000000e-01 -2.083333333333334e-01 -9.578125000000002e-01
5.000000000000000e-01 -2.083333333333334e-01 -9.578125000000002e-01
0.000000000000000e+00 -2.499999999999999e-01 -9.578125000000002e-01
0.000000000000000e+00 -1.666666666666667e-01 -9.578125000000002e-01
0.000000000000000e+00 -2.083333333333334e-01 -1.000000000000000e+00
0.000000000000000e+00 -2.083333333333334e-01 -9.156250000000001e-01
0.000000000000000e+00 -2.083333333333333e-01 -9.578124999999998e-01
-5.000000000000000e-01 -1.666666666666667e-01 -1.000000000000000e+00
5.000000000000000e-01 -1.666666666666667e-01 -1.000000000000000e+00
5.000000000000000e-01 -8.333333333333334e-02 -1.000000000000000e+00
-5.000000000000000e-01 -8.333333333333334e-02 -1.000000000000000e+00
-5.000000000000000e-01 -1.666666666666667e-01 -9.156250000000000e-01
5.000000000000000e-01 -1.666666666666667e-01 -9.156250000000000e-01
5.000000000000000e-01 -8.333333333333337e-02 -9.156250000000001e-01
-5.000000000000000e-01 -8.333333333333337e-02 -9.156250000000001e-01
0.000000000000000e+00 -1.666666666666667e-01 -1.000000000000000e+00
5.000000000000001e-01 -1.250000000000000e-01 -1.000000000000000e+00
0.000000000000000e+00 -8.333333333333334e-02 -1.000000000000000e+00
-5.000000000000001e-01 -1.250000000000000e-01 -1.000000000000000e+00
0.000000000000000e+00 -1.666666666666667e-01 -9.156250000000000e-01
5.000000000000000e-01 -1.250000000000000e-01 -9.156250000000001e-01
0.000000000000000e+00 -8.333333333333334e-02 -9.156249999999999e-01
-5.000000000000000e-01 -1.250000000000000e-01 -9.156250000000001e-01
-5.000000000000000e-01 -1.666666666666667e-01 -9.578125000000000e-01
5.000000000000000e-01 -1.666666666666667e-01 -9.578125000000000e-01
5.000000000000000e-01 -8.333333333333336e-02 -9.578125000000000e-01
-5.000000000000000e-01 -8.333333333333336e-02 -9.578125000000000e-01
-5.000000000000000e-01 -1.250000000000000e-01 -9.578125000000002e-01
5.000000000000000e-01 -1.250000000000000e-01 -9.578125000000002e-01
0.000000000000000e+00 -1.666666666666667e-01 -9.578125000000002e-01
0.000000000000000e+00 -8.333333333333334e-02 -9.578125000000001e-01
0.000000000000000e+00 -1.250000000000000e-01 -1.000000000000000e+00
0.000000000000000e+00 -1.250000000000000e-01 -9.156250000000002e-01
0.000000000000000e+00 -1.250000000000000e-01 -9.578124999999998e-01
-5.000000000000000e-01 -8.333333333333334e-02 -1.000000000000000e+00
5.000000000000000e-01 -8.333333333333334e-02 -1.000000000000000e+00
5.000000000000000e-01 0.000000000000000e+00 -1.000000000000000e+00
-5.000000000000000e-01 0.000000000000000e+00 -1.000000000000000e+00
[...]
  <PointData>
        <DataArray type="Float64" Name="displacement" NumberOfComponents="3" format="ascii">
0.000000000000000e+00 0.000000000000000e+00 0.000000000000000e+00
0.000000000000000e+00 0.000000000000000e+00 0.000000000000000e+00
-5.800718664344235e-07 2.925492430503207e-08 2.482003076802910e-04
5.800718664378802e-07 2.925492431168630e-08 2.482003076802860e-04
5.218222636741692e-07 -2.372034798822416e-04 1.685464178709857e-04
-5.218222636723183e-07 -2.372034798822490e-04 1.685464178709881e-04
-5.631000983560996e-07 -2.372297742517003e-04 3.888046984796830e-04
5.631000983591838e-07 -2.372297742516933e-04 3.888046984796801e-04
0.000000000000000e+00 0.000000000000000e+00 0.000000000000000e+00
-4.159105895828709e-07 2.328385905288726e-08 1.240529989979960e-04
1.733466161445726e-18 -1.606844694575839e-08 2.485657567931614e-04
4.159105895850531e-07 2.328385905741653e-08 1.240529989979923e-04
9.189645733219116e-19 -2.373676369066709e-04 1.688498194035220e-04
-5.283957870142922e-07 -2.372118746246971e-04 2.786799301360916e-04
1.541480849994619e-18 -2.373537167949326e-04 3.892033391105335e-04
5.283957870166473e-07 -2.372118746246902e-04 2.786799301360885e-04
3.752426180025938e-07 -1.221178661189399e-04 8.426368623224554e-05
-3.752426180011127e-07 -1.221178661189455e-04 8.426368623224739e-05
-5.345246212922254e-07 -1.221492775454257e-04 3.185171666576691e-04
5.345246212953744e-07 -1.221492775454187e-04 3.185171666576658e-04
4.602779395129065e-07 -1.221301129390066e-04 2.013805372006159e-04
-4.602779395106353e-07 -1.221301129390130e-04 2.013805372006187e-04
7.388608841895158e-19 -1.222647028064529e-04 8.443069086497702e-05
1.578431007957363e-18 -1.222479881685898e-04 3.188761506285424e-04
1.094836406440486e-18 -1.231645380949806e-08 1.243074091829145e-04
1.175107667443857e-18 -2.373640083077851e-04 2.790266570494011e-04
1.137865101134576e-18 -1.222581080085399e-04 2.016589750609890e-04
5.800718664378802e-07 2.925492431168630e-08 2.482003076802860e-04
-5.800718664344235e-07 2.925492430503207e-08 2.482003076802910e-04
-6.326589374243840e-07 1.510412474328048e-08 4.966062507886517e-04
6.326589374295342e-07 1.510412475144647e-08 4.966062507886483e-04
5.631000983591838e-07 -2.372297742516933e-04 3.888046984796801e-04
-5.631000983560996e-07 -2.372297742517003e-04 3.888046984796830e-04
-5.992823357631636e-07 -2.372787577536916e-04 6.090834164539202e-04
5.992823357679453e-07 -2.372787577536841e-04 6.090834164539180e-04
1.733466161445726e-18 -1.606844694575839e-08 2.485657567931614e-04
-6.123619444248604e-07 2.437455859048097e-08 3.723990252196035e-04
2.569328861708111e-18 -7.305746888748556e-09 4.970180248352039e-04
6.123619444291510e-07 2.437455859797454e-08 3.723990252195989e-04
1.541480849994619e-18 -2.373537167949326e-04 3.892033391105335e-04
-5.965305103787278e-07 -2.372533461618385e-04 4.989345761646602e-04
2.383133814544874e-18 -2.373199282346510e-04 6.095302753393456e-04
5.965305103826571e-07 -2.372533461618313e-04 4.989345761646577e-04
5.345246212953744e-07 -1.221492775454187e-04 3.185171666576658e-04
-5.345246212922254e-07 -1.221492775454257e-04 3.185171666576691e-04
-5.971630670808816e-07 -1.221921458520564e-04 5.528505563574981e-04
5.971630670858258e-07 -1.221921458520486e-04 5.528505563574954e-04
5.846104137022603e-07 -1.221713063718687e-04 4.356737734333181e-04
-5.846104136982015e-07 -1.221713063718760e-04 4.356737734333214e-04
1.578431007957363e-18 -1.222479881685898e-04 3.188761506285424e-04
2.463878222858626e-18 -1.222209132932452e-04 5.532710137386805e-04
2.147701668600032e-18 -1.361265333132666e-08 3.727957322156287e-04
1.962651439404569e-18 -2.373384581699442e-04 4.993733753021162e-04
2.030491002981880e-18 -1.222352782692694e-04 4.360806770327390e-04
6.326589374295342e-07 1.510412475144647e-08 4.966062507886483e-04
-6.326589374243840e-07 1.510412474328048e-08 4.966062507886517e-04
-5.868390051853960e-07 -7.122842952289610e-09 7.450608600569299e-04
5.868390051922512e-07 -7.122842943951946e-09 7.450608600569271e-04
5.992823357679453e-07 -2.372787577536841e-04 6.090834164539180e-04
-5.992823357631636e-07 -2.372787577536916e-04 6.090834164539202e-04
-5.360291691663144e-07 -2.373264718911455e-04 8.294216660209718e-04
5.360291691728006e-07 -2.373264718911375e-04 8.294216660209698e-04
2.569328861708111e-18 -7.305746888748556e-09 4.970180248352039e-04
-6.283541796166705e-07 3.814648862625371e-09 6.208256428976795e-04
3.409267908029156e-18 1.602971988022703e-08 7.454367561923941e-04
6.283541796226836e-07 3.814648871128768e-09 6.208256428976769e-04
2.383133814544874e-18 -2.373199282346510e-04 6.095302753393456e-04
-5.771753101466212e-07 -2.373038520044102e-04 7.192471396413841e-04
3.225620577152583e-18 -2.372779583569329e-04 8.298178068490683e-04
5.771753101522571e-07 -2.373038520044026e-04 7.192471396413818e-04
5.971630670858258e-07 -1.221921458520486e-04 5.528505563574954e-04
-5.971630670808816e-07 -1.221921458520564e-04 5.528505563574981e-04
-5.414544189270651e-07 -1.222328460415049e-04 7.872474765423426e-04
5.414544189337240e-07 -1.222328460414970e-04 7.872474765423408e-04
5.801289469837532e-07 -1.222124433029332e-04 6.700432219029265e-04
-5.801289469779437e-07 -1.222124433029412e-04 6.700432219029288e-04
2.463878222858626e-18 -1.222209132932452e-04 5.532710137386805e-04
3.309453677873608e-18 -1.221857770741769e-04 7.876244285963947e-04
2.992004919832907e-18 2.644351231820980e-09 6.212319332835661e-04
2.803831256644444e-18 -2.372993529699985e-04 7.196773241968027e-04
2.887338448204122e-18 -1.222045329812901e-04 6.704509883815160e-04
5.868390051922512e-07 -7.122842943951946e-09 7.450608600569271e-04
-5.868390051853960e-07 -7.122842952289610e-09 7.450608600569299e-04
-4.351248392536356e-07 -2.663585643763527e-08 9.935644017926800e-04
4.351248392621789e-07 -2.663585642962293e-08 9.935644017926781e-04
5.360291691728006e-07 -2.373264718911375e-04 8.294216660209698e-04
-5.360291691663144e-07 -2.373264718911455e-04 8.294216660209718e-04
-3.998816025745890e-07 -2.373659490188939e-04 1.049803176858074e-03
3.998816025828217e-07 -2.373659490188854e-04 1.049803176858072e-03
3.409267908029156e-18 1.602971988022703e-08 7.454367561923941e-04
-5.188502723309284e-07 -1.738184621464847e-08 8.693083103330482e-04
4.243436542397032e-18 4.850556514746667e-08 9.938337192854690e-04
5.188502723386217e-07 -1.738184620660079e-08 8.693083103330451e-04
3.225620577152583e-18 -2.372779583569329e-04 8.298178068490683e-04
-4.766594281872885e-07 -2.373470325254543e-04 9.396070077180719e-04
4.089458525731511e-18 -2.372350504549053e-04 1.050087517385663e-03
4.766594281946356e-07 -2.373470325254460e-04 9.396070077180702e-04
5.414544189337240e-07 -1.222328460414970e-04 7.872474765423408e-04
-5.414544189270651e-07 -1.222328460415049e-04 7.872474765423426e-04
-4.052293355468763e-07 -1.222671201591238e-04 1.021687386350996e-03
4.052293355552767e-07 -1.222671201591155e-04 1.021687386350994e-03
4.826507820771084e-07 -1.222516422621033e-04 9.044624785877067e-04
-4.826507820695934e-07 -1.222516422621112e-04 9.044624785877084e-04
3.309453677873608e-18 -1.221857770741769e-04 7.876244285963947e-04
4.170557794528047e-18 -1.221477833622300e-04 1.021959434279321e-03
3.825131306628966e-18 3.170018315319908e-08 8.696361370351930e-04
3.652722878735151e-18 -2.372563292377897e-04 9.399538342580514e-04
3.735472993239190e-18 -1.221663067938440e-04 9.047932665175760e-04
4.351248392621789e-07 -2.663585642962293e-08 9.935644017926781e-04
-4.351248392536356e-07 -2.663585643763527e-08 9.935644017926800e-04
-2.247715727610762e-07 -4.068088443523438e-08 1.242098966917857e-03
2.247715727714291e-07 -4.068088442735813e-08 1.242098966917855e-03
3.998816025828217e-07 -2.373659490188854e-04 1.049803176858072e-03
-3.998816025745890e-07 -2.373659490188939e-04 1.049803176858074e-03
-2.090359054428155e-07 -2.373944213689579e-04 1.270218432732249e-03
2.090359054528179e-07 -2.373944213689488e-04 1.270218432732247e-03
4.243436542397032e-18 4.850556514746667e-08 9.938337192854690e-04
-3.367396310361431e-07 -3.452287028868543e-08 1.117828249099669e-03
5.149483863273316e-18 7.792184684121256e-08 1.242226774291771e-03
3.367396310455667e-07 -3.452287028066113e-08 1.117828249099668e-03
4.089458525731511e-18 -2.372350504549053e-04 1.050087517385663e-03
-3.094292443268774e-07 -2.373821143179124e-04 1.160007782257344e-03
4.970988213251723e-18 -2.372009074573234e-04 1.270353056656297e-03
3.094292443360016e-07 -2.373821143179036e-04 1.160007782257342e-03
4.052293355552767e-07 -1.222671201591155e-04 1.021687386350994e-03
-4.052293355468763e-07 -1.222671201591238e-04 1.021687386350996e-03
-2.101156735481870e-07 -1.222905000893897e-04 1.256160849136872e-03
2.101156735583627e-07 -1.222905000893811e-04 1.256160849136870e-03
3.130857443788284e-07 -1.222798745092895e-04 1.138920682358587e-03
-3.130857443695340e-07 -1.222798745092981e-04 1.138920682358588e-03
4.170557794528047e-18 -1.221477833622300e-04 1.021959434279321e-03
5.057445130875765e-18 -1.221171529544576e-04 1.256289341965444e-03
4.679727993404451e-18 6.454605624836084e-08 1.118030324514052e-03
4.530594773586653e-18 -2.372159628981322e-04 1.160220157696784e-03
4.612101222039719e-18 -1.221311007566596e-04 1.139124327541865e-03
2.247715727714291e-07 -4.068088442735813e-08 1.242098966917855e-03
-2.247715727610762e-07 -4.068088443523438e-08 1.242098966917857e-03
2.221655000935139e-08 -4.952783647675672e-08 1.490653814837947e-03
-2.221654999708056e-08 -4.952783646772660e-08 1.490653814837943e-03
2.090359054528179e-07 -2.373944213689488e-04 1.270218432732247e-03
-2.090359054428155e-07 -2.373944213689579e-04 1.270218432732249e-03
1.087410061046786e-08 -2.374096400013083e-04 1.490653406497637e-03
-1.087410059866344e-08 -2.374096400012987e-04 1.490653406497634e-03
5.149483863273316e-18 7.792184684121256e-08 1.242226774291771e-03
-1.036448004165422e-07 -4.553937959276415e-08 1.366374755434774e-03
6.113533088701817e-18 9.256617521374934e-08 1.490619519033294e-03
1.036448004278515e-07 -4.553937958471347e-08 1.366374755434771e-03
4.970988213251723e-18 -2.372009074573234e-04 1.270353056656297e-03
-1.013764893283760e-07 -2.374034149905750e-04 1.380434012679958e-03
5.879831404598436e-18 -2.371848816203296e-04 1.490619682163856e-03
1.013764893392646e-07 -2.374034149905655e-04 1.380434012679956e-03
2.101156735583627e-07 -1.222905000893811e-04 1.256160849136870e-03
-2.101156735481870e-07 -1.222905000893897e-04 1.256160849136872e-03
1.631957332138719e-08 -1.223044610022955e-04 1.490653715229419e-03
-1.631957330937749e-08 -1.223044610022861e-04 1.490653715229416e-03
9.931520652019040e-08 -1.222987709151324e-04 1.373405866741820e-03
-9.931520650911860e-08 -1.222987709151413e-04 1.373405866741824e-03
5.057445130875765e-18 -1.221171529544576e-04 1.256289341965444e-03
5.983554890328910e-18 -1.221016474063957e-04 1.490619563923863e-03
5.633736900557784e-18 8.760464910376203e-08 1.366423146503296e-03
5.418207547331580e-18 -2.371903813066616e-04 1.380486227175041e-03
5.512598161005772e-18 -1.221069863671832e-04 1.373454434957099e-03
-2.221654999708056e-08 -4.952783646772660e-08 1.490653814837943e-03
2.221655000935139e-08 -4.952783647675672e-08 1.490653814837947e-03
2.764798062964015e-07 -5.540786305586987e-08 1.739213189327952e-03
-2.764798062822713e-07 -5.540786304609434e-08 1.739213189327949e-03
-1.087410059866344e-08 -2.374096400012987e-04 1.490653406497634e-03
1.087410061046786e-08 -2.374096400013083e-04 1.490653406497637e-03
2.367322699120461e-07 -2.374142732804628e-04 1.711093086286196e-03
-2.367322698983979e-07 -2.374142732804533e-04 1.711093086286193e-03
6.113533088701817e-18 9.256617521374934e-08 1.490619519033294e-03
1.498966838144005e-07 -5.277456199514701e-08 1.614934005883598e-03
7.053799217158195e-18 8.855084085194882e-08 1.739010662921102e-03
-1.498966838011828e-07 -5.277456198523954e-08 1.614934005883595e-03
5.879831404598436e-18 -2.371848816203296e-04 1.490619682163856e-03
1.246117313613854e-07 -2.374132186737426e-04 1.600873976821109e-03
6.812365048688667e-18 -2.371886598133478e-04 1.710884652239845e-03
-1.246117313486547e-07 -2.374132186737331e-04 1.600873976821106e-03
-1.631957330937749e-08 -1.223044610022861e-04 1.490653715229416e-03
1.631957332138719e-08 -1.223044610022955e-04 1.490653715229419e-03
2.497791121878933e-07 -1.223088308343850e-04 1.725151346231084e-03
-2.497791121740026e-07 -1.223088308343752e-04 1.725151346231081e-03
-1.337104261381665e-07 -1.223077533192358e-04 1.607902754944291e-03
1.337104261511259e-07 -1.223077533192457e-04 1.607902754944294e-03
5.983554890328910e-18 -1.221016474063957e-04 1.490619563923863e-03
6.934153331816687e-18 -1.221052774372880e-04 1.724948065745735e-03
6.587383502602819e-18 9.286278564015227e-08 1.614815491349862e-03
6.347372084786883e-18 -2.371843329415006e-04 1.600752723294778e-03
6.460635858112238e-18 -1.221010923403467e-04 1.607784262856492e-03
-2.764798062822713e-07 -5.540786304609434e-08 1.739213189327949e-03
2.764798062964015e-07 -5.540786305586987e-08 1.739213189327952e-03
5.139338735807872e-07 -5.797934578214470e-08 1.987762809725980e-03
-5.139338735648763e-07 -5.797934577322170e-08 1.987762809725977e-03
-2.367322698983979e-07 -2.374142732804533e-04 1.711093086286193e-03
2.367322699120461e-07 -2.374142732804628e-04 1.711093086286196e-03
4.459639765721430e-07 -2.374079122728809e-04 1.931522586931074e-03
-4.459639765567327e-07 -2.374079122728711e-04 1.931522586931071e-03
7.053799217158195e-18 8.855084085194882e-08 1.739010662921102e-03
3.988606315277367e-07 -5.721402815338317e-08 1.863489934249312e-03
7.989836798323201e-18 7.025908033261890e-08 1.987398068678565e-03
-3.988606315127136e-07 -5.721402814413905e-08 1.863489934249309e-03
6.812365048688667e-18 -2.371886598133478e-04 1.710884652239845e-03
3.446961928023367e-07 -2.374125793154988e-04 1.821309650965363e-03
7.724199325130372e-18 -2.372096834529083e-04 1.931144940393383e-03
-3.446961927877915e-07 -2.374125793154894e-04 1.821309650965360e-03
-2.497791121740026e-07 -1.223088308343752e-04 1.725151346231081e-03
2.497791121878933e-07 -1.223088308343850e-04 1.725151346231084e-03
4.668315331244154e-07 -1.223059590668023e-04 1.959639312511382e-03
-4.668315331087498e-07 -1.223059590667927e-04 1.959639312511380e-03
-3.617460187273694e-07 -1.223080979495967e-04 1.842397521337530e-03
3.617460187421648e-07 -1.223080979496064e-04 1.842397521337533e-03
6.934153331816687e-18 -1.221052774372880e-04 1.724948065745735e-03
7.859552543123649e-18 -1.221232831723529e-04 1.959272596103213e-03
7.519154486168277e-18 8.066978952436297e-08 1.863204899959755e-03
7.272169935788519e-18 -2.371972980468306e-04 1.821015410704299e-03
7.401367689253482e-18 -1.221130564602725e-04 1.842110875768882e-03
-5.139338735648763e-07 -5.797934577322170e-08 1.987762809725977e-03
5.139338735807872e-07 -5.797934578214470e-08 1.987762809725980e-03
7.122932558739567e-07 -5.843682522268291e-08 2.236291949518960e-03
-7.122932558562975e-07 -5.843682521368227e-08 2.236291949518955e-03
-4.459639765567327e-07 -2.374079122728711e-04 1.931522586931071e-03
4.459639765721430e-07 -2.374079122728809e-04 1.931522586931074e-03
6.192996082487519e-07 -2.373947506619682e-04 2.151930451198210e-03
-6.192996082316364e-07 -2.373947506619586e-04 2.151930451198206e-03
7.989836798323201e-18 7.025908033261890e-08 1.987398068678565e-03
6.192334443860337e-07 -5.821616258947208e-08 2.112030565051388e-03
8.906419091480960e-18 4.974408543602815e-08 2.235784860002757e-03
-6.192334443692432e-07 -5.821616258063767e-08 2.112030565051383e-03
7.724199325130372e-18 -2.372096834529083e-04 1.931144940393383e-03
5.382577415960774e-07 -2.374015450794302e-04 2.041730113802350e-03
8.604471698119503e-18 -2.372378178302898e-04 2.151404175781094e-03
-5.382577415798162e-07 -2.374015450794203e-04 2.041730113802347e-03
-4.668315331087498e-07 -1.223059590667927e-04 1.959639312511380e-03
4.668315331244154e-07 -1.223059590668023e-04 1.959639312511382e-03
6.472326172389029e-07 -1.222967532211709e-04 2.194106091563001e-03
-6.472326172215289e-07 -1.222967532211614e-04 2.194106091562997e-03
-5.627542132846382e-07 -1.223022366644764e-04 2.076875806878059e-03
5.627542133011573e-07 -1.223022366644861e-04 2.076875806878062e-03
7.859552543123649e-18 -1.221232831723529e-04 1.959272596103213e-03
8.748009041093379e-18 -1.221469550810879e-04 2.193596824173391e-03
8.455628818696711e-18 5.929256254655967e-08 2.111591083789057e-03
8.168312596010092e-18 -2.372238465434413e-04 2.041274206891010e-03
8.308495721600066e-18 -1.221349264278509e-04 2.076434240865721e-03
-7.122932558562975e-07 -5.843682521368227e-08 2.236291949518955e-03
7.122932558739567e-07 -5.843682522268291e-08 2.236291949518960e-03
8.556238680437106e-07 -5.939356730450096e-08 2.484791591752523e-03
-8.556238680242941e-07 -5.939356729477907e-08 2.484791591752519e-03
-6.192996082316364e-07 -2.373947506619586e-04 2.151930451198206e-03
6.192996082487519e-07 -2.373947506619682e-04 2.151930451198210e-03
7.426135350678115e-07 -2.373781907299011e-04 2.372308092528203e-03
-7.426135350489878e-07 -2.373781907298916e-04 2.372308092528200e-03
8.906419091480960e-18 4.974408543602815e-08 2.235784860002757e-03
7.915958748310256e-07 -5.878230351621369e-08 2.360545959596677e-03
9.766263412062481e-18 3.907007313409036e-08 2.484183940161505e-03
-7.915958748124955e-07 -5.878230350688594e-08 2.360545959596674e-03
8.604471698119503e-18 -2.372378178302898e-04 2.151404175781094e-03
6.878360486870390e-07 -2.373871066642176e-04 2.262123232859784e-03
9.452285503872053e-18 -2.372631781599986e-04 2.371674937836926e-03
-6.878360486690685e-07 -2.373871066642083e-04 2.262123232859780e-03
-6.472326172215289e-07 -1.222967532211614e-04 2.194106091562997e-03
6.472326172389029e-07 -1.222967532211709e-04 2.194106091563001e-03
7.774465175463504e-07 -1.222856328338748e-04 2.428544343725751e-03
-7.774465175272557e-07 -1.222856328338652e-04 2.428544343725747e-03
-7.191642252066566e-07 -1.222907911424302e-04 2.311329244525718e-03
7.191642252248884e-07 -1.222907911424395e-04 2.311329244525722e-03
8.748009041093379e-18 -1.221469550810879e-04 2.193596824173391e-03
9.598531036171428e-18 -1.221662709115276e-04 2.427932388230093e-03
9.342988475174197e-18 4.265585397415988e-08 2.359981708425095e-03
9.032504577891192e-18 -2.372510956052201e-04 2.261537026338209e-03
9.178051142572960e-18 -1.221578947147510e-04 2.310762241477692e-03
-8.556238680242941e-07 -5.939356729477907e-08 2.484791591752519e-03
8.556238680437106e-07 -5.939356730450096e-08 2.484791591752523e-03
9.409340935372874e-07 -6.202421774993632e-08 2.733258937911734e-03
-9.409340935161551e-07 -6.202421774074534e-08 2.733258937911730e-03
-7.426135350489878e-07 -2.373781907298916e-04 2.372308092528200e-03
7.426135350678115e-07 -2.373781907299011e-04 2.372308092528203e-03
8.144318512528913e-07 -2.373651556527338e-04 2.592650777505246e-03
-8.144318512323761e-07 -2.373651556527240e-04 2.592650777505243e-03
9.766263412062481e-18 3.907007313409036e-08 2.484183940161505e-03
9.051467645873513e-07 -6.042330818369256e-08 2.609029149889781e-03
1.058857358516880e-17 3.890077753848374e-08 2.732607894892253e-03
-9.051467645670590e-07 -6.042330817388958e-08 2.609029149889777e-03
9.452285503872053e-18 -2.372631781599986e-04 2.371674937836926e-03
7.845171187900894e-07 -2.373701560093095e-04 2.482484213108386e-03
1.028504462247614e-17 -2.372786010534672e-04 2.591972243379806e-03
-7.845171187704165e-07 -2.373701560092998e-04 2.482484213108382e-03
-7.774465175272557e-07 -1.222856328338652e-04 2.428544343725747e-03
7.774465175463504e-07 -1.222856328338748e-04 2.428544343725751e-03
8.555823327315010e-07 -1.222788112646238e-04 2.662948549555476e-03
-8.555823327106836e-07 -1.222788112646143e-04 2.662948549555471e-03
-8.227092885672804e-07 -1.222815492298116e-04 2.545750931342522e-03
8.227092885872384e-07 -1.222815492298214e-04 2.545750931342525e-03
9.598531036171428e-18 -1.221662709115276e-04 2.427932388230093e-03
1.043508195070346e-17 -1.221747915761677e-04 2.662294336249475e-03
1.018012503357991e-17 3.811047147060359e-08 2.608392390540914e-03
9.868314338594373e-18 -2.372727763557170e-04 2.481819485207405e-03